 vasp.6.3.2 27Jun22 (build Aug 02 2025 14:55:03) complex                        
  
 executed on             LinuxIFC date 2025.11.28  16:53:08
 running on  128 total cores
 distrk:  each k-point on  128 cores,    1 groups
 distr:  one band on NCORE=  32 cores,    4 groups


--------------------------------------------------------------------------------------------------------


 INCAR:
   PREC = Normal
   ENCUT = 500
   IBRION = -1
   ISPIN = 2
   MAGMOM = 5 -5 4*1 4*-1 4*1 4*-1 4*1 4*-1 4*1 4*-1 4*1 4*-1 4*1 4*-1 4*1 4*-1 4*1 4*-1 4*1 4*-1 4*1 4*-1 4*1 4*-1 4*1 4*-1 4*1 4*-1 4*1 4*-1 4*1 4*-1 4*1 4*-1 4*1 4*-1 4*1 4*-1 4*1 4*-1 4*1 4*-1 4*1 4*-1 4*1 4*-1 4*1 4*-1 4*1 4*-1 4*1 4*-1 4*1 4*-1 4*1 4*-1 4*1 4*-1 4*1 4*-1 4*1 4*-1 4*1 4*-1 4*1 4*-1 4*1 4*-1 4*1 4*-1 4*1 4*-1 4*1 4*-1 4*1 4*-1 4*1 4*-1 4*1 4*-1
   NSW = 0
   NELM = 200
   ISIF = 2
   EDIFF = 1E-5
   EDIFFG = -0.01
   ALGO = Fast
   ISTART = 1
   ICHARG = 11
   LREAL = Auto
   LWAVE = .F.
   LCHARG = .F.
   LVTOT = .T.
   NPAR = 4
   AMIX = 0.2
   BMIX = 0.0001
   AMIX_MAG = 0.8
   BMIX_MAG = 0.0001
   LDAU = .TRUE.
   LDAUTYPE = 2
   LDAUL = 2 -1 -1 -1 -1 -1
   LDAUU = 3.0 0 0 0 0 0
   LDAUJ = 1.0 0 0 0 0 0
   LMAXMIX = 4
   LORBIT = 11

 POTCAR:    PAW_PBE Cr_pv 02Aug2007               
 POTCAR:    PAW_PBE H 15Jun2001                   
 POTCAR:    PAW_PBE C 08Apr2002                   
 POTCAR:    PAW_PBE N 08Apr2002                   
 WARNING: For LVTOT=.TRUE., VASP.5.x writes the TOTAL local potential to the
     file LOCPOT. If you want only the Hartree contributions, use LVHAR=.TRUE.
     instead. 

 -----------------------------------------------------------------------------
|                                                                             |
|           W    W    AA    RRRRR   N    N  II  N    N   GGGG   !!!           |
|           W    W   A  A   R    R  NN   N  II  NN   N  G    G  !!!           |
|           W    W  A    A  R    R  N N  N  II  N N  N  G       !!!           |
|           W WW W  AAAAAA  RRRRR   N  N N  II  N  N N  G  GGG   !            |
|           WW  WW  A    A  R   R   N   NN  II  N   NN  G    G                |
|           W    W  A    A  R    R  N    N  II  N    N   GGGG   !!!           |
|                                                                             |
|     For optimal performance we recommend to set                             |
|       NCORE = 2 up to number-of-cores-per-socket                            |
|     NCORE specifies how many cores store one orbital (NPAR=cpu/NCORE).      |
|     This setting can greatly improve the performance of VASP for DFT.       |
|     The default, NCORE=1 might be grossly inefficient on modern             |
|     multi-core architectures or massively parallel machines. Do your        |
|     own testing! More info at https://www.vasp.at/wiki/index.php/NCORE      |
|     Unfortunately you need to use the default for GW and RPA                |
|     calculations (for HF NCORE is supported but not extensively tested      |
|     yet).                                                                   |
|                                                                             |
 -----------------------------------------------------------------------------

 POTCAR:    PAW_PBE Cr_pv 02Aug2007               
   SHA256 =  c9a7df34d3cdbacf1090e328ef39c0b420964e11c23f63548d1ac9dd218cdba0 Cr_pv/POTCAR          
   COPYR  = (c) Copyright 02Aug2007 Georg Kresse                                                    
   COPYR  = This file is part of the software VASP. Any use, copying, and all other rights are regul
   COPYR  = If you do not have a valid VASP license, you may not use, copy or distribute this file. 
   VRHFIN =Cr : p6d5s1                                                                              
   LEXCH  = PE                                                                                      
   EATOM  =  1647.9177 eV,  121.1185 Ry                                                             
                                                                                                    
   TITEL  = PAW_PBE Cr_pv 02Aug2007                                                                 
   LULTRA =        F    use ultrasoft PP ?                                                          
   IUNSCR =        1    unscreen: 0-lin 1-nonlin 2-no                                               
   RPACOR =    2.080    partial core radius                                                         
   POMASS =   51.996; ZVAL   =   12.000    mass and valenz                                          
   RCORE  =    2.300    outmost cutoff radius                                                       
   RWIGS  =    2.500; RWIGS  =    1.323    wigner-seitz radius (au A)                               
   ENMAX  =  265.681; ENMIN  =  199.261 eV                                                          
   ICORE  =        3    local potential                                                             
   LCOR   =        T    correct aug charges                                                         
   LPAW   =        T    paw PP                                                                      
   EAUG   =  519.424                                                                                
   DEXC   =    0.000                                                                                
   RMAX   =    2.356    core radius for proj-oper                                                   
   RAUG   =    1.300    factor for augmentation sphere                                              
   RDEP   =    2.447    radius for radial grids                                                     
   RDEPT  =    1.882    core radius for aug-charge                                                  
                                                                                                    
   Atomic configuration                                                                             
    8 entries                                                                                       
     n  l   j            E        occ.                                                              
     1  0  0.50     -5880.4963   2.0000                                                             
     2  0  0.50      -667.0865   2.0000                                                             
     2  1  1.50      -560.6250   6.0000                                                             
     3  0  0.50       -73.9860   2.0000                                                             
     3  1  1.50       -45.4378   6.0000                                                             
     3  2  2.50        -2.9137   5.0000                                                             
     4  0  0.50        -4.0071   1.0000                                                             
     4  3  2.50        -1.3606   0.0000                                                             
   Description                                                                                      
     l       E           TYP  RCUT    TYP  RCUT                                                     
     1    -45.4377911     23  2.000                                                                 
     1      1.3605826     23  2.000                                                                 
     2     -2.9136672     23  2.300                                                                 
     2     -4.2742498     23  2.300                                                                 
     0     -4.0071320     23  2.300                                                                 
     0      9.4498803     23  2.300                                                                 
     3      2.7211652     23  2.300                                                                 
  local pseudopotential read in
  partial core-charges read in
  partial kinetic energy density read in
  atomic valenz-charges read in
  non local Contribution for L=           1  read in
    real space projection operators read in
  non local Contribution for L=           1  read in
    real space projection operators read in
  non local Contribution for L=           2  read in
    real space projection operators read in
  non local Contribution for L=           2  read in
    real space projection operators read in
  non local Contribution for L=           0  read in
    real space projection operators read in
  non local Contribution for L=           0  read in
    real space projection operators read in
    PAW grid and wavefunctions read in
 
   number of l-projection  operators is LMAX  =           6
   number of lm-projection operators is LMMAX =          18
 
 POTCAR:    PAW_PBE H 15Jun2001                   
   SHA256 =  030f79b5d3ab3cf0e668861823c8fb652ff669f3e15e46930bd03bfd63a607b6 H/POTCAR              
   COPYR  = (c) Copyright 15Jun2001 Georg Kresse                                                    
   COPYR  = This file is part of the software VASP. Any use, copying, and all other rights are regul
   COPYR  = If you do not have a valid VASP license, you may not use, copy or distribute this file. 
   VRHFIN =H: ultrasoft test                                                                        
   LEXCH  = PE                                                                                      
   EATOM  =    12.4884 eV,    0.9179 Ry                                                             
                                                                                                    
   TITEL  = PAW_PBE H 15Jun2001                                                                     
   LULTRA =        F    use ultrasoft PP ?                                                          
   IUNSCR =        0    unscreen: 0-lin 1-nonlin 2-no                                               
   RPACOR =    0.000    partial core radius                                                         
   POMASS =    1.000; ZVAL   =    1.000    mass and valenz                                          
   RCORE  =    1.100    outmost cutoff radius                                                       
   RWIGS  =    0.700; RWIGS  =    0.370    wigner-seitz radius (au A)                               
   ENMAX  =  250.000; ENMIN  =  200.000 eV                                                          
   RCLOC  =    0.701    cutoff for local pot                                                        
   LCOR   =        T    correct aug charges                                                         
   LPAW   =        T    paw PP                                                                      
   EAUG   =  400.000                                                                                
   RMAX   =    1.123    core radius for proj-oper                                                   
   RAUG   =    1.200    factor for augmentation sphere                                              
   RDEP   =    1.112    radius for radial grids                                                     
   RDEPT  =    0.926    core radius for aug-charge                                                  
                                                                                                    
   Atomic configuration                                                                             
    2 entries                                                                                       
     n  l   j            E        occ.                                                              
     1  0  0.50        -6.4927   1.0000                                                             
     2  1  0.50        -3.4015   0.0000                                                             
   Description                                                                                      
     l       E           TYP  RCUT    TYP  RCUT                                                     
     0     -6.4927494     23  1.100                                                                 
     0      6.8029130     23  1.100                                                                 
     1     -4.0817478     23  1.100                                                                 
  local pseudopotential read in
  atomic valenz-charges read in
  non local Contribution for L=           0  read in
    real space projection operators read in
  non local Contribution for L=           0  read in
    real space projection operators read in
  non local Contribution for L=           1  read in
    real space projection operators read in
    PAW grid and wavefunctions read in
 
   number of l-projection  operators is LMAX  =           3
   number of lm-projection operators is LMMAX =           5
 
 POTCAR:    PAW_PBE C 08Apr2002                   
   SHA256 =  253f7b50bb8d59471dbedb8285d89021f4a42ed1a2c5d38a03a736e69125dd95 C/POTCAR              
   COPYR  = (c) Copyright 08Apr2002 Georg Kresse                                                    
   COPYR  = This file is part of the software VASP. Any use, copying, and all other rights are regul
   COPYR  = If you do not have a valid VASP license, you may not use, copy or distribute this file. 
   VRHFIN =C: s2p2                                                                                  
   LEXCH  = PE                                                                                      
   EATOM  =   147.1560 eV,   10.8157 Ry                                                             
                                                                                                    
   TITEL  = PAW_PBE C 08Apr2002                                                                     
   LULTRA =        F    use ultrasoft PP ?                                                          
   IUNSCR =        1    unscreen: 0-lin 1-nonlin 2-no                                               
   RPACOR =    1.200    partial core radius                                                         
   POMASS =   12.011; ZVAL   =    4.000    mass and valenz                                          
   RCORE  =    1.500    outmost cutoff radius                                                       
   RWIGS  =    1.630; RWIGS  =    0.863    wigner-seitz radius (au A)                               
   ENMAX  =  400.000; ENMIN  =  300.000 eV                                                          
   ICORE  =        2    local potential                                                             
   LCOR   =        T    correct aug charges                                                         
   LPAW   =        T    paw PP                                                                      
   EAUG   =  644.873                                                                                
   DEXC   =    0.000                                                                                
   RMAX   =    1.529    core radius for proj-oper                                                   
   RAUG   =    1.300    factor for augmentation sphere                                              
   RDEP   =    1.501    radius for radial grids                                                     
   RDEPT  =    1.300    core radius for aug-charge                                                  
                                                                                                    
   Atomic configuration                                                                             
    4 entries                                                                                       
     n  l   j            E        occ.                                                              
     1  0  0.50      -273.3789   2.0000                                                             
     2  0  0.50       -13.7508   2.0000                                                             
     2  1  0.50        -5.2854   2.0000                                                             
     3  2  1.50        -5.4423   0.0000                                                             
   Description                                                                                      
     l       E           TYP  RCUT    TYP  RCUT                                                     
     0    -13.7508458     23  1.200                                                                 
     0     -8.2022199     23  1.200                                                                 
     1     -5.2854383     23  1.500                                                                 
     1     34.0145650     23  1.500                                                                 
     2     -5.4423304      7  1.500                                                                 
  local pseudopotential read in
  partial core-charges read in
  partial kinetic energy density read in
  atomic valenz-charges read in
  non local Contribution for L=           0  read in
    real space projection operators read in
  non local Contribution for L=           0  read in
    real space projection operators read in
  non local Contribution for L=           1  read in
    real space projection operators read in
  non local Contribution for L=           1  read in
    real space projection operators read in
    PAW grid and wavefunctions read in
 
   number of l-projection  operators is LMAX  =           4
   number of lm-projection operators is LMMAX =           8
 
 POTCAR:    PAW_PBE N 08Apr2002                   
   SHA256 =  e053789ff3a61a86a1b75d8a110fcc91f86041011e7b0817c7c99e4e8a6349d7 N/POTCAR              
   COPYR  = (c) Copyright 08Apr2002 Georg Kresse                                                    
   COPYR  = This file is part of the software VASP. Any use, copying, and all other rights are regul
   COPYR  = If you do not have a valid VASP license, you may not use, copy or distribute this file. 
   VRHFIN =N: s2p3                                                                                  
   LEXCH  = PE                                                                                      
   EATOM  =   264.5486 eV,   19.4438 Ry                                                             
                                                                                                    
   TITEL  = PAW_PBE N 08Apr2002                                                                     
   LULTRA =        F    use ultrasoft PP ?                                                          
   IUNSCR =        1    unscreen: 0-lin 1-nonlin 2-no                                               
   RPACOR =    1.200    partial core radius                                                         
   POMASS =   14.001; ZVAL   =    5.000    mass and valenz                                          
   RCORE  =    1.500    outmost cutoff radius                                                       
   RWIGS  =    1.400; RWIGS  =    0.741    wigner-seitz radius (au A)                               
   ENMAX  =  400.000; ENMIN  =  300.000 eV                                                          
   ICORE  =        2    local potential                                                             
   LCOR   =        T    correct aug charges                                                         
   LPAW   =        T    paw PP                                                                      
   EAUG   =  627.112                                                                                
   DEXC   =    0.000                                                                                
   RMAX   =    1.529    core radius for proj-oper                                                   
   RAUG   =    1.300    factor for augmentation sphere                                              
   RDEP   =    1.514    radius for radial grids                                                     
   RDEPT  =    1.338    core radius for aug-charge                                                  
                                                                                                    
   Atomic configuration                                                                             
    4 entries                                                                                       
     n  l   j            E        occ.                                                              
     1  0  0.50      -384.7179   2.0000                                                             
     2  0  0.50       -18.5828   2.0000                                                             
     2  1  0.50        -7.0898   3.0000                                                             
     3  2  1.50        -6.8029   0.0000                                                             
   Description                                                                                      
     l       E           TYP  RCUT    TYP  RCUT                                                     
     0    -18.5828119     23  1.200                                                                 
     0    -13.5018863     23  1.200                                                                 
     1     -7.0897853     23  1.500                                                                 
     1      9.5240782     23  1.500                                                                 
     2     -6.8029130      7  1.500                                                                 
  local pseudopotential read in
  partial core-charges read in
  partial kinetic energy density read in
  atomic valenz-charges read in
  non local Contribution for L=           0  read in
    real space projection operators read in
  non local Contribution for L=           0  read in
    real space projection operators read in
  non local Contribution for L=           1  read in
    real space projection operators read in
  non local Contribution for L=           1  read in
    real space projection operators read in
    PAW grid and wavefunctions read in
 
   number of l-projection  operators is LMAX  =           4
   number of lm-projection operators is LMMAX =           8
 
 Optimization of the real space projectors (new method)

 maximal supplied QI-value         = 16.25
 optimisation between [QCUT,QGAM] = [ 11.38, 22.75] = [ 36.24,144.96] Ry 
 Optimized for a Real-space Cutoff    1.31 Angstroem

   l    n(q)    QCUT    max X(q) W(low)/X(q) W(high)/X(q)  e(spline) 
   1      8    11.376     3.262    0.15E-03    0.36E-03    0.86E-07
   1      8    11.376     5.741    0.39E-03    0.84E-03    0.21E-06
   2      8    11.376    60.438    0.39E-03    0.55E-03    0.20E-06
   2      8    11.376    55.380    0.40E-03    0.57E-03    0.20E-06
   0      9    11.376    80.273    0.17E-03    0.16E-03    0.48E-07
   0      9    11.376    36.654    0.15E-03    0.14E-03    0.43E-07
 Optimization of the real space projectors (new method)

 maximal supplied QI-value         = 34.20
 optimisation between [QCUT,QGAM] = [ 11.29, 22.57] = [ 35.68,142.71] Ry 
 Optimized for a Real-space Cutoff    1.16 Angstroem

   l    n(q)    QCUT    max X(q) W(low)/X(q) W(high)/X(q)  e(spline) 
   0      8    11.287    19.460    0.40E-03    0.73E-03    0.16E-06
   0      8    11.287    12.209    0.38E-03    0.70E-03    0.15E-06
   1      7    11.287     4.655    0.22E-03    0.25E-04    0.22E-06
 Optimization of the real space projectors (new method)

 maximal supplied QI-value         = 25.13
 optimisation between [QCUT,QGAM] = [ 11.31, 22.87] = [ 35.82,146.48] Ry 
 Optimized for a Real-space Cutoff    1.00 Angstroem

   l    n(q)    QCUT    max X(q) W(low)/X(q) W(high)/X(q)  e(spline) 
   0      7    11.310   115.676    0.43E-03    0.13E-02    0.19E-06
   0      7    11.310    87.132    0.43E-03    0.13E-02    0.18E-06
   1      6    11.310     4.429    0.42E-03    0.74E-03    0.11E-06
   1      6    11.310     2.733    0.34E-03    0.55E-03    0.92E-07
 Optimization of the real space projectors (new method)

 maximal supplied QI-value         = 25.13
 optimisation between [QCUT,QGAM] = [ 11.31, 22.87] = [ 35.82,146.48] Ry 
 Optimized for a Real-space Cutoff    1.27 Angstroem

   l    n(q)    QCUT    max X(q) W(low)/X(q) W(high)/X(q)  e(spline) 
   0      9    11.310    79.467    0.75E-04    0.16E-03    0.36E-06
   0      9    11.310    66.151    0.74E-04    0.16E-03    0.36E-06
   1      8    11.310    17.416    0.35E-03    0.12E-03    0.95E-06
   1      8    11.310    12.382    0.37E-03    0.13E-03    0.98E-06
  PAW_PBE Cr_pv 02Aug2007               :
 energy of atom  1       EATOM=-1647.9177
 kinetic energy error for atom=    0.0061 (will be added to EATOM!!)
  PAW_PBE H 15Jun2001                   :
 energy of atom  2       EATOM=  -12.4884
 kinetic energy error for atom=    0.0020 (will be added to EATOM!!)
  PAW_PBE C 08Apr2002                   :
 energy of atom  3       EATOM= -147.1560
 kinetic energy error for atom=    0.0076 (will be added to EATOM!!)
  PAW_PBE N 08Apr2002                   :
 energy of atom  4       EATOM= -264.5486
 kinetic energy error for atom=    0.0138 (will be added to EATOM!!)
 
 
 POSCAR: Cr2 H16 C32 N16
  positions in direct lattice
  No initial velocities read in
 exchange correlation table for  LEXCH =        8
   RHO(1)=    0.500       N(1)  =     2000
   RHO(2)=  100.500       N(2)  =     4000
 


--------------------------------------------------------------------------------------------------------


 ion  position               nearest neighbor table
   1  0.000  0.000  0.500-  51 2.40  53 2.40  56 2.40  58 2.40
   2  0.500  0.500  0.500-  52 2.40  54 2.40  55 2.40  57 2.40
   3  0.028  0.254  0.500-  19 1.08
   4  0.528  0.754  0.500-  20 1.08
   5  0.972  0.746  0.500-  21 1.08
   6  0.472  0.246  0.500-  22 1.08
   7  0.246  0.528  0.500-  23 1.08
   8  0.746  0.028  0.500-  24 1.08
   9  0.754  0.472  0.500-  25 1.08
  10  0.254  0.972  0.500-  26 1.08
  11  0.681  0.538  0.500-  43 1.06
  12  0.181  0.038  0.500-  44 1.06
  13  0.319  0.462  0.500-  45 1.06
  14  0.819  0.962  0.500-  46 1.06
  15  0.962  0.181  0.500-  47 1.06
  16  0.462  0.681  0.500-  48 1.06
  17  0.038  0.819  0.500-  49 1.06
  18  0.538  0.319  0.500-  50 1.06
  19  0.083  0.214  0.500-   3 1.08  51 1.38  27 1.41
  20  0.583  0.714  0.500-   4 1.08  52 1.38  28 1.41
  21  0.917  0.786  0.500-   5 1.08  53 1.38  29 1.41
  22  0.417  0.286  0.500-   6 1.08  54 1.38  30 1.41
  23  0.286  0.583  0.500-   7 1.08  55 1.38  31 1.41
  24  0.786  0.083  0.500-   8 1.08  56 1.38  32 1.41
  25  0.714  0.417  0.500-   9 1.08  57 1.38  33 1.41
  26  0.214  0.917  0.500-  10 1.08  58 1.38  34 1.41
  27  0.167  0.245  0.500-  59 1.34  19 1.41  36 1.45
  28  0.667  0.745  0.500-  60 1.34  20 1.41  35 1.45
  29  0.833  0.755  0.500-  61 1.34  21 1.41  38 1.45
  30  0.333  0.255  0.500-  62 1.34  22 1.41  37 1.45
  31  0.255  0.667  0.500-  63 1.34  23 1.41  40 1.45
  32  0.755  0.167  0.500-  64 1.34  24 1.41  39 1.45
  33  0.745  0.333  0.500-  65 1.34  25 1.41  42 1.45
  34  0.245  0.833  0.500-  66 1.34  26 1.41  41 1.45
  35  0.721  0.672  0.500-  61 1.34  43 1.41  28 1.45
  36  0.221  0.172  0.500-  62 1.34  44 1.41  27 1.45
  37  0.279  0.328  0.500-  59 1.34  45 1.41  30 1.45
  38  0.779  0.828  0.500-  60 1.34  46 1.41  29 1.45
  39  0.828  0.221  0.500-  65 1.34  47 1.41  32 1.45
  40  0.328  0.721  0.500-  66 1.34  48 1.41  31 1.45
  41  0.172  0.779  0.500-  63 1.34  49 1.41  34 1.45
  42  0.672  0.279  0.500-  64 1.34  50 1.41  33 1.45
  43  0.666  0.603  0.500-  11 1.06  52 1.37  35 1.41
  44  0.166  0.103  0.500-  12 1.06  51 1.37  36 1.41
  45  0.334  0.397  0.500-  13 1.06  54 1.37  37 1.41
  46  0.834  0.897  0.500-  14 1.06  53 1.37  38 1.41
  47  0.897  0.166  0.500-  15 1.06  56 1.37  39 1.41
  48  0.397  0.666  0.500-  16 1.06  55 1.37  40 1.41
  49  0.103  0.834  0.500-  17 1.06  58 1.37  41 1.41
  50  0.603  0.334  0.500-  18 1.06  57 1.37  42 1.41
  51  0.083  0.127  0.500-  44 1.37  19 1.38   1 2.40
  52  0.583  0.627  0.500-  43 1.37  20 1.38   2 2.40
  53  0.917  0.873  0.500-  46 1.37  21 1.38   1 2.40
  54  0.417  0.373  0.500-  45 1.37  22 1.38   2 2.40
  55  0.373  0.583  0.500-  48 1.37  23 1.38   2 2.40
  56  0.873  0.083  0.500-  47 1.37  24 1.38   1 2.40
  57  0.627  0.417  0.500-  50 1.37  25 1.38   2 2.40
  58  0.127  0.917  0.500-  49 1.37  26 1.38   1 2.40
  59  0.194  0.325  0.500-  27 1.34  37 1.34
  60  0.694  0.825  0.500-  28 1.34  38 1.34
  61  0.806  0.675  0.500-  29 1.34  35 1.34
  62  0.306  0.175  0.500-  30 1.34  36 1.34
  63  0.175  0.694  0.500-  31 1.34  41 1.34
  64  0.675  0.194  0.500-  32 1.34  42 1.34
  65  0.825  0.306  0.500-  33 1.34  39 1.34
  66  0.325  0.806  0.500-  34 1.34  40 1.34
 
  LATTYP: Found a simple tetragonal cell.
 ALAT       =    15.8756645771
 C/A-ratio  =     0.8138262161
  
  Lattice vectors:
  
 A1 = (  11.2257900789, -11.2257900777,   0.0000000000)
 A2 = (  11.2257900777,  11.2257900789,   0.0000000000)
 A3 = (   0.0000000000,   0.0000000000,  12.9200320302)


Analysis of symmetry for initial positions (statically):
=====================================================================
 Subroutine PRICEL returns following result:
 
  LATTYP: Found a simple tetragonal cell.
 ALAT       =    11.2257900783
 C/A-ratio  =     1.1509240722
  
  Lattice vectors:
  
 A1 = (   0.0000000006, -11.2257900783,   0.0000000000)
 A2 = (  11.2257900783,   0.0000000006,   0.0000000000)
 A3 = (   0.0000000000,   0.0000000000,  12.9200320302)
 
   2 primitive cells build up your supercell.
 

 Routine SETGRP: Setting up the symmetry group for a 
 simple tetragonal supercell.


 Subroutine GETGRP returns: Found  8 space group operations
 (whereof  8 operations were pure point group operations)
 out of a pool of 16 trial point group operations.


The static configuration has the point symmetry C_4h.


Analysis of symmetry for dynamics (positions and initial velocities):
=====================================================================
 Subroutine PRICEL returns following result:
 
  LATTYP: Found a simple tetragonal cell.
 ALAT       =    11.2257900783
 C/A-ratio  =     1.1509240722
  
  Lattice vectors:
  
 A1 = (   0.0000000006, -11.2257900783,   0.0000000000)
 A2 = (  11.2257900783,   0.0000000006,   0.0000000000)
 A3 = (   0.0000000000,   0.0000000000,  12.9200320302)
 
   2 primitive cells build up your supercell.
 

 Routine SETGRP: Setting up the symmetry group for a 
 simple tetragonal supercell.


 Subroutine GETGRP returns: Found  8 space group operations
 (whereof  8 operations were pure point group operations)
 out of a pool of 16 trial point group operations.


The dynamic configuration has the point symmetry C_4h.


Analysis of structural, dynamic, and magnetic symmetry:
=====================================================================
 Subroutine PRICEL returns:
 Original cell was already a primitive cell.
 

 Routine SETGRP: Setting up the symmetry group for a 
 simple tetragonal supercell.


 Subroutine GETGRP returns: Found  8 space group operations
 (whereof  4 operations were pure point group operations)
 out of a pool of 16 trial point group operations.


The overall configuration has the point symmetry C_2h.
 The point group associated with its full space group is C_4h.


 Subroutine INISYM returns: Found  8 space group operations
 (whereof  4 operations are pure point group operations),
 and found     1 'primitive' translations


----------------------------------------------------------------------------------------

                                     Primitive cell                                     

  volume of cell :    3256.3226

  direct lattice vectors                    reciprocal lattice vectors
    11.225790079-11.225790078  0.000000000     0.044540295 -0.044540295  0.000000000
    11.225790078 11.225790079  0.000000000     0.044540295  0.044540295  0.000000000
     0.000000000  0.000000000 12.920032030    -0.000000000 -0.000000000  0.077399189

  length of vectors
    15.875664577 15.875664577 12.920032030     0.062989489  0.062989489  0.077399189

  position of ions in fractional coordinates (direct lattice)
     0.000000000  0.000000000  0.500000000
     0.500000000  0.500000000  0.500000000
     0.028416047  0.254430027  0.500000000
     0.528416047  0.754430027  0.500000000
     0.971583953  0.745569973  0.500000000
     0.471583953  0.245569973  0.500000000
     0.245569973  0.528416047  0.500000000
     0.745569973  0.028416047  0.500000000
     0.754430027  0.471583953  0.500000000
     0.254430027  0.971583953  0.500000000
     0.681062121  0.537767425  0.500000000
     0.181062121  0.037767425  0.500000000
     0.318937879  0.462232575  0.500000000
     0.818937879  0.962232575  0.500000000
     0.962232575  0.181062121  0.500000000
     0.462232575  0.681062121  0.500000000
     0.037767425  0.818937879  0.500000000
     0.537767425  0.318937879  0.500000000
     0.083315853  0.213836890  0.500000000
     0.583315853  0.713836890  0.500000000
     0.916684147  0.786163110  0.500000000
     0.416684147  0.286163110  0.500000000
     0.286163110  0.583315853  0.500000000
     0.786163110  0.083315853  0.500000000
     0.713836890  0.416684147  0.500000000
     0.213836890  0.916684147  0.500000000
     0.166545661  0.245451489  0.500000000
     0.666545661  0.745451489  0.500000000
     0.833454339  0.754548511  0.500000000
     0.333454339  0.254548511  0.500000000
     0.254548511  0.666545661  0.500000000
     0.754548511  0.166545661  0.500000000
     0.745451489  0.333454339  0.500000000
     0.245451489  0.833454339  0.500000000
     0.721267248  0.671971480  0.500000000
     0.221267248  0.171971480  0.500000000
     0.278732752  0.328028520  0.500000000
     0.778732752  0.828028520  0.500000000
     0.828028520  0.221267248  0.500000000
     0.328028520  0.721267248  0.500000000
     0.171971480  0.778732752  0.500000000
     0.671971480  0.278732752  0.500000000
     0.665886848  0.602885230  0.500000000
     0.165886848  0.102885230  0.500000000
     0.334113152  0.397114770  0.500000000
     0.834113152  0.897114770  0.500000000
     0.897114770  0.165886848  0.500000000
     0.397114770  0.665886848  0.500000000
     0.102885230  0.834113152  0.500000000
     0.602885230  0.334113152  0.500000000
     0.083036358  0.126604388  0.500000000
     0.583036358  0.626604388  0.500000000
     0.916963642  0.873395612  0.500000000
     0.416963642  0.373395612  0.500000000
     0.373395612  0.583036358  0.500000000
     0.873395612  0.083036358  0.500000000
     0.626604388  0.416963642  0.500000000
     0.126604388  0.916963642  0.500000000
     0.194060030  0.325368123  0.500000000
     0.694060030  0.825368123  0.500000000
     0.805939970  0.674631877  0.500000000
     0.305939970  0.174631877  0.500000000
     0.174631877  0.694060030  0.500000000
     0.674631877  0.194060030  0.500000000
     0.825368123  0.305939970  0.500000000
     0.325368123  0.805939970  0.500000000

  ion indices of the primitive-cell ions
   primitive index   ion index
                 1           1
                 2           2
                 3           3
                 4           4
                 5           5
                 6           6
                 7           7
                 8           8
                 9           9
                10          10
                11          11
                12          12
                13          13
                14          14
                15          15
                16          16
                17          17
                18          18
                19          19
                20          20
                21          21
                22          22
                23          23
                24          24
                25          25
                26          26
                27          27
                28          28
                29          29
                30          30
                31          31
                32          32
                33          33
                34          34
                35          35
                36          36
                37          37
                38          38
                39          39
                40          40
                41          41
                42          42
                43          43
                44          44
                45          45
                46          46
                47          47
                48          48
                49          49
                50          50
                51          51
                52          52
                53          53
                54          54
                55          55
                56          56
                57          57
                58          58
                59          59
                60          60
                61          61
                62          62
                63          63
                64          64
                65          65
                66          66

----------------------------------------------------------------------------------------

 
 
 KPOINTS: K-Path Generated by VASPKIT.            

Interpolating k-points between supplied coordinates.

 Line segments in fractional coordinates (reciprocal lattice):
    0.500000  0.500000  0.000000  ...  0.500000  0.000000  0.000000
    0.500000  0.000000  0.000000  ...  1.000000  0.000000  0.000000
    1.000000  0.000000  0.000000  ...  0.500000  0.500000  0.000000
    0.500000  0.500000  0.000000  ...  1.000000  1.000000  0.000000
    1.000000  1.000000  0.000000  ...  1.000000  0.500000  0.000000
    1.000000  0.500000  0.000000  ...  0.500000  0.500000  0.000000

 Generated    15 points on each line segment, for a total of     90 k-points:

 Following reciprocal coordinates:
            Coordinates               Weight
  0.500000  0.500000  0.000000      0.011111
  0.500000  0.464286  0.000000      0.011111
  0.500000  0.428571  0.000000      0.011111
  0.500000  0.392857  0.000000      0.011111
  0.500000  0.357143  0.000000      0.011111
  0.500000  0.321429  0.000000      0.011111
  0.500000  0.285714  0.000000      0.011111
  0.500000  0.250000  0.000000      0.011111
  0.500000  0.214286  0.000000      0.011111
  0.500000  0.178571  0.000000      0.011111
  0.500000  0.142857  0.000000      0.011111
  0.500000  0.107143  0.000000      0.011111
  0.500000  0.071429  0.000000      0.011111
  0.500000  0.035714  0.000000      0.011111
  0.500000  0.000000  0.000000      0.011111
  0.500000  0.000000  0.000000      0.011111
  0.535714  0.000000  0.000000      0.011111
  0.571429  0.000000  0.000000      0.011111
  0.607143  0.000000  0.000000      0.011111
  0.642857  0.000000  0.000000      0.011111
  0.678571  0.000000  0.000000      0.011111
  0.714286  0.000000  0.000000      0.011111
  0.750000  0.000000  0.000000      0.011111
  0.785714  0.000000  0.000000      0.011111
  0.821429  0.000000  0.000000      0.011111
  0.857143  0.000000  0.000000      0.011111
  0.892857  0.000000  0.000000      0.011111
  0.928571  0.000000  0.000000      0.011111
  0.964286  0.000000  0.000000      0.011111
  1.000000  0.000000  0.000000      0.011111
  1.000000  0.000000  0.000000      0.011111
  0.964286  0.035714  0.000000      0.011111
  0.928571  0.071429  0.000000      0.011111
  0.892857  0.107143  0.000000      0.011111
  0.857143  0.142857  0.000000      0.011111
  0.821429  0.178571  0.000000      0.011111
  0.785714  0.214286  0.000000      0.011111
  0.750000  0.250000  0.000000      0.011111
  0.714286  0.285714  0.000000      0.011111
  0.678571  0.321429  0.000000      0.011111
  0.642857  0.357143  0.000000      0.011111
  0.607143  0.392857  0.000000      0.011111
  0.571429  0.428571  0.000000      0.011111
  0.535714  0.464286  0.000000      0.011111
  0.500000  0.500000  0.000000      0.011111
  0.500000  0.500000  0.000000      0.011111
  0.535714  0.535714  0.000000      0.011111
  0.571429  0.571429  0.000000      0.011111
  0.607143  0.607143  0.000000      0.011111
  0.642857  0.642857  0.000000      0.011111
  0.678571  0.678571  0.000000      0.011111
  0.714286  0.714286  0.000000      0.011111
  0.750000  0.750000  0.000000      0.011111
  0.785714  0.785714  0.000000      0.011111
  0.821429  0.821429  0.000000      0.011111
  0.857143  0.857143  0.000000      0.011111
  0.892857  0.892857  0.000000      0.011111
  0.928571  0.928571  0.000000      0.011111
  0.964286  0.964286  0.000000      0.011111
  1.000000  1.000000  0.000000      0.011111
  1.000000  1.000000  0.000000      0.011111
  1.000000  0.964286  0.000000      0.011111
  1.000000  0.928571  0.000000      0.011111
  1.000000  0.892857  0.000000      0.011111
  1.000000  0.857143  0.000000      0.011111
  1.000000  0.821429  0.000000      0.011111
  1.000000  0.785714  0.000000      0.011111
  1.000000  0.750000  0.000000      0.011111
  1.000000  0.714286  0.000000      0.011111
  1.000000  0.678571  0.000000      0.011111
  1.000000  0.642857  0.000000      0.011111
  1.000000  0.607143  0.000000      0.011111
  1.000000  0.571429  0.000000      0.011111
  1.000000  0.535714  0.000000      0.011111
  1.000000  0.500000  0.000000      0.011111
  1.000000  0.500000  0.000000      0.011111
  0.964286  0.500000  0.000000      0.011111
  0.928571  0.500000  0.000000      0.011111
  0.892857  0.500000  0.000000      0.011111
  0.857143  0.500000  0.000000      0.011111
  0.821429  0.500000  0.000000      0.011111
  0.785714  0.500000  0.000000      0.011111
  0.750000  0.500000  0.000000      0.011111
  0.714286  0.500000  0.000000      0.011111
  0.678571  0.500000  0.000000      0.011111
  0.642857  0.500000  0.000000      0.011111
  0.607143  0.500000  0.000000      0.011111
  0.571429  0.500000  0.000000      0.011111
  0.535714  0.500000  0.000000      0.011111
  0.500000  0.500000  0.000000      0.011111

 Following cartesian coordinates:
            Coordinates               Weight
  0.044540  0.000000  0.000000      0.011111
  0.042950 -0.001591  0.000000      0.011111
  0.041359 -0.003181  0.000000      0.011111
  0.039768 -0.004772  0.000000      0.011111
  0.038177 -0.006363  0.000000      0.011111
  0.036587 -0.007954  0.000000      0.011111
  0.034996 -0.009544  0.000000      0.011111
  0.033405 -0.011135  0.000000      0.011111
  0.031814 -0.012726  0.000000      0.011111
  0.030224 -0.014317  0.000000      0.011111
  0.028633 -0.015907  0.000000      0.011111
  0.027042 -0.017498  0.000000      0.011111
  0.025452 -0.019089  0.000000      0.011111
  0.023861 -0.020679  0.000000      0.011111
  0.022270 -0.022270  0.000000      0.011111
  0.022270 -0.022270  0.000000      0.011111
  0.023861 -0.023861  0.000000      0.011111
  0.025452 -0.025452  0.000000      0.011111
  0.027042 -0.027042  0.000000      0.011111
  0.028633 -0.028633  0.000000      0.011111
  0.030224 -0.030224  0.000000      0.011111
  0.031814 -0.031814  0.000000      0.011111
  0.033405 -0.033405  0.000000      0.011111
  0.034996 -0.034996  0.000000      0.011111
  0.036587 -0.036587  0.000000      0.011111
  0.038177 -0.038177  0.000000      0.011111
  0.039768 -0.039768  0.000000      0.011111
  0.041359 -0.041359  0.000000      0.011111
  0.042950 -0.042950  0.000000      0.011111
  0.044540 -0.044540  0.000000      0.011111
  0.044540 -0.044540  0.000000      0.011111
  0.044540 -0.041359  0.000000      0.011111
  0.044540 -0.038177  0.000000      0.011111
  0.044540 -0.034996  0.000000      0.011111
  0.044540 -0.031814  0.000000      0.011111
  0.044540 -0.028633  0.000000      0.011111
  0.044540 -0.025452  0.000000      0.011111
  0.044540 -0.022270  0.000000      0.011111
  0.044540 -0.019089  0.000000      0.011111
  0.044540 -0.015907  0.000000      0.011111
  0.044540 -0.012726  0.000000      0.011111
  0.044540 -0.009544  0.000000      0.011111
  0.044540 -0.006363  0.000000      0.011111
  0.044540 -0.003181  0.000000      0.011111
  0.044540  0.000000  0.000000      0.011111
  0.044540  0.000000  0.000000      0.011111
  0.047722  0.000000  0.000000      0.011111
  0.050903  0.000000  0.000000      0.011111
  0.054085  0.000000  0.000000      0.011111
  0.057266  0.000000  0.000000      0.011111
  0.060448  0.000000  0.000000      0.011111
  0.063629  0.000000  0.000000      0.011111
  0.066810  0.000000  0.000000      0.011111
  0.069992  0.000000  0.000000      0.011111
  0.073173  0.000000  0.000000      0.011111
  0.076355  0.000000  0.000000      0.011111
  0.079536  0.000000  0.000000      0.011111
  0.082718  0.000000  0.000000      0.011111
  0.085899  0.000000  0.000000      0.011111
  0.089081  0.000000  0.000000      0.011111
  0.089081  0.000000  0.000000      0.011111
  0.087490 -0.001591  0.000000      0.011111
  0.085899 -0.003181  0.000000      0.011111
  0.084308 -0.004772  0.000000      0.011111
  0.082718 -0.006363  0.000000      0.011111
  0.081127 -0.007954  0.000000      0.011111
  0.079536 -0.009544  0.000000      0.011111
  0.077946 -0.011135  0.000000      0.011111
  0.076355 -0.012726  0.000000      0.011111
  0.074764 -0.014317  0.000000      0.011111
  0.073173 -0.015907  0.000000      0.011111
  0.071583 -0.017498  0.000000      0.011111
  0.069992 -0.019089  0.000000      0.011111
  0.068401 -0.020679  0.000000      0.011111
  0.066810 -0.022270  0.000000      0.011111
  0.066810 -0.022270  0.000000      0.011111
  0.065220 -0.020679  0.000000      0.011111
  0.063629 -0.019089  0.000000      0.011111
  0.062038 -0.017498  0.000000      0.011111
  0.060448 -0.015907  0.000000      0.011111
  0.058857 -0.014317  0.000000      0.011111
  0.057266 -0.012726  0.000000      0.011111
  0.055675 -0.011135  0.000000      0.011111
  0.054085 -0.009544  0.000000      0.011111
  0.052494 -0.007954  0.000000      0.011111
  0.050903 -0.006363  0.000000      0.011111
  0.049312 -0.004772  0.000000      0.011111
  0.047722 -0.003181  0.000000      0.011111
  0.046131 -0.001591  0.000000      0.011111
  0.044540  0.000000  0.000000      0.011111
 


--------------------------------------------------------------------------------------------------------




 Dimension of arrays:
   k-points           NKPTS =     90   k-points in BZ     NKDIM =     90   number of bands    NBANDS=    160
   number of dos      NEDOS =    301   number of ions     NIONS =     66
   non local maximal  LDIM  =      6   non local SUM 2l+1 LMDIM =     18
   total plane-waves  NPLWV = 583200
   max r-space proj   IRMAX =   1736   max aug-charges    IRDMAX=   6431
   dimension x,y,z NGX =    90 NGY =   90 NGZ =   72
   dimension x,y,z NGXF=   180 NGYF=  180 NGZF=  144
   support grid    NGXF=   180 NGYF=  180 NGZF=  144
   ions per type =               2  16  32  16
   NGX,Y,Z   is equivalent  to a cutoff of   9.42,  9.42,  9.26 a.u.
   NGXF,Y,Z  is equivalent  to a cutoff of  18.85, 18.85, 18.53 a.u.

 SYSTEM =  unknown system                          
 POSCAR =  Cr2 H16 C32 N16                         

 Startparameter for this run:
   NWRITE =      2    write-flag & timer
   PREC   = normal    normal or accurate (medium, high low for compatibility)
   ISTART =      0    job   : 0-new  1-cont  2-samecut
   ICHARG =     11    charge: 1-file 2-atom 10-const
   ISPIN  =      2    spin polarized calculation?
   LNONCOLLINEAR =      F non collinear calculations
   LSORBIT =      F    spin-orbit coupling
   INIWAV =      1    electr: 0-lowe 1-rand  2-diag
   LASPH  =      F    aspherical Exc in radial PAW
 Electronic Relaxation 1
   ENCUT  =  500.0 eV  36.75 Ry    6.06 a.u.  28.94 28.94 23.56*2*pi/ulx,y,z
   ENINI  =  500.0     initial cutoff
   ENAUG  =  644.9 eV  augmentation charge cutoff
   NELM   =    200;   NELMIN=  2; NELMDL=  0     # of ELM steps 
   EDIFF  = 0.1E-04   stopping-criterion for ELM
   LREAL  =      T    real-space projection
   NLSPLINE    = F    spline interpolate recip. space projectors
   LCOMPAT=      F    compatible to vasp.4.4
   GGA_COMPAT  = T    GGA compatible to vasp.4.4-vasp.4.6
   LMAXPAW     = -100 max onsite density
   LMAXMIX     =    4 max onsite mixed and CHGCAR
   VOSKOWN=      0    Vosko Wilk Nusair interpolation
   ROPT   =   -0.00050  -0.00050  -0.00050  -0.00050
 Ionic relaxation
   EDIFFG = -.1E-01   stopping-criterion for IOM
   NSW    =      0    number of steps for IOM
   NBLOCK =      1;   KBLOCK =      1    inner block; outer block 
   IBRION =     -1    ionic relax: 0-MD 1-quasi-New 2-CG
   NFREE  =      0    steps in history (QN), initial steepest desc. (CG)
   ISIF   =      2    stress and relaxation
   IWAVPR =     10    prediction:  0-non 1-charg 2-wave 3-comb
   ISYM   =      2    0-nonsym 1-usesym 2-fastsym
   LCORR  =      T    Harris-Foulkes like correction to forces

   POTIM  = 0.5000    time-step for ionic-motion
   TEIN   =    0.0    initial temperature
   TEBEG  =    0.0;   TEEND  =   0.0 temperature during run
   SMASS  =  -3.00    Nose mass-parameter (am)
   estimated Nose-frequenzy (Omega)   =  0.10E-29 period in steps = 0.13E+47 mass=  -0.576E-26a.u.
   SCALEE = 1.0000    scale energy and forces
   NPACO  =    256;   APACO  = 10.0  distance and # of slots for P.C.
   PSTRESS=    0.0 pullay stress

  Mass of Ions in am
   POMASS =  52.00  1.00 12.01 14.00
  Ionic Valenz
   ZVAL   =  12.00  1.00  4.00  5.00
  Atomic Wigner-Seitz radii
   RWIGS  =  -1.00 -1.00 -1.00 -1.00
  virtual crystal weights 
   VCA    =   1.00  1.00  1.00  1.00
   NELECT =     248.0000    total number of electrons
   NUPDOWN=      -1.0000    fix difference up-down

 DOS related values:
   EMIN   =  10.00;   EMAX   =-10.00  energy-range for DOS
   EFERMI =   0.00
   ISMEAR =     1;   SIGMA  =   0.20  broadening in eV -4-tet -1-fermi 0-gaus

 Electronic relaxation 2 (details)
   IALGO  =     68    algorithm
   LDIAG  =      T    sub-space diagonalisation (order eigenvalues)
   LSUBROT=      F    optimize rotation matrix (better conditioning)
   TURBO    =      0    0=normal 1=particle mesh
   IRESTART =      0    0=no restart 2=restart with 2 vectors
   NREBOOT  =      0    no. of reboots
   NMIN     =      0    reboot dimension
   EREF     =   0.00    reference energy to select bands
   IMIX   =      4    mixing-type and parameters
     AMIX     =   0.20;   BMIX     =  0.00
     AMIX_MAG =   0.80;   BMIX_MAG =  0.00
     AMIN     =   0.10
     WC   =   100.;   INIMIX=   1;  MIXPRE=   1;  MAXMIX= -45

 Intra band minimization:
   WEIMIN = 0.0000     energy-eigenvalue tresh-hold
   EBREAK =  0.16E-07  absolut break condition
   DEPER  =   0.30     relativ break condition  

   TIME   =   0.40     timestep for ELM

  volume/ion in A,a.u.               =      49.34       332.95
  Fermi-wavevector in a.u.,A,eV,Ry     =   0.693931  1.311339  6.551751  0.481540
  Thomas-Fermi vector in A             =   1.776282
 
 Write flags
   LWAVE        =      F    write WAVECAR
   LDOWNSAMPLE  =      F    k-point downsampling of WAVECAR
   LCHARG       =      F    write CHGCAR
   LVTOT        =      T    write LOCPOT, total local potential
   LVHAR        =      F    write LOCPOT, Hartree potential only
   LELF         =      F    write electronic localiz. function (ELF)
   LORBIT       =     11    0 simple, 1 ext, 2 COOP (PROOUT), +10 PAW based schemes


 Dipole corrections
   LMONO  =      F    monopole corrections only (constant potential shift)
   LDIPOL =      F    correct potential (dipole corrections)
   IDIPOL =      0    1-x, 2-y, 3-z, 4-all directions 
   EPSILON=  1.0000000 bulk dielectric constant

 LDA+U is selected, type is set to LDAUTYPE =  2
   angular momentum for each species LDAUL =     2   -1   -1   -1
   U (eV)           for each species LDAUU =   3.0  0.0  0.0  0.0
   J (eV)           for each species LDAUJ =   1.0  0.0  0.0  0.0
 Exchange correlation treatment:
   GGA     =    --    GGA type
   LEXCH   =     8    internal setting for exchange type
   LIBXC   =     F    Libxc                    
   VOSKOWN =     0    Vosko Wilk Nusair interpolation
   LHFCALC =     F    Hartree Fock is set to
   LHFONE  =     F    Hartree Fock one center treatment
   AEXX    =    0.0000 exact exchange contribution

 Linear response parameters
   LEPSILON=     F    determine dielectric tensor
   LRPA    =     F    only Hartree local field effects (RPA)
   LNABLA  =     F    use nabla operator in PAW spheres
   LVEL    =     F    velocity operator in full k-point grid
   CSHIFT  =0.1000    complex shift for real part using Kramers Kronig
   OMEGAMAX=  -1.0    maximum frequency
   DEG_THRESHOLD= 0.2000000E-02 threshold for treating states as degnerate
   RTIME   =   -0.100 relaxation time in fs
  (WPLASMAI=    0.000 imaginary part of plasma frequency in eV, 0.658/RTIME)
   DFIELD  = 0.0000000 0.0000000 0.0000000 field for delta impulse in time
 
  Optional k-point grid parameters
   LKPOINTS_OPT  =     F    use optional k-point grid
   KPOINTS_OPT_MODE=     1    mode for optional k-point grid
 
 Orbital magnetization related:
   ORBITALMAG=     F  switch on orbital magnetization
   LCHIMAG   =     F  perturbation theory with respect to B field
   DQ        =  0.001000  dq finite difference perturbation B field
   LLRAUG    =     F  two centre corrections for induced B field



--------------------------------------------------------------------------------------------------------


 Static calculation
 charge density and potential remain constant during run
 spin polarized calculation
 RMM-DIIS sequential band-by-band and
  variant of blocked Davidson during initial phase
 perform sub-space diagonalisation
    before iterative eigenvector-optimisation
 no mixing
 using additional bands           36
 real space projection scheme for non local part
 use partial core corrections
 calculate Harris-corrections to forces 
   (improved forces if not selfconsistent)
 use gradient corrections 
 WARNING: stress and forces are not correct
  (second derivative of E(xc) not defined)
 use of overlap-Matrix (Vanderbilt PP)
 Methfessel and Paxton  Order N= 1 SIGMA  =   0.20


--------------------------------------------------------------------------------------------------------


  energy-cutoff  :      500.00
  volume of cell :     3256.32
      direct lattice vectors                 reciprocal lattice vectors
    11.225790079-11.225790078  0.000000000     0.044540295 -0.044540295  0.000000000
    11.225790078 11.225790079  0.000000000     0.044540295  0.044540295  0.000000000
     0.000000000  0.000000000 12.920032030    -0.000000000 -0.000000000  0.077399189

  length of vectors
    15.875664577 15.875664577 12.920032030     0.062989489  0.062989489  0.077399189


 
 k-points in units of 2pi/SCALE and weight: K-Path Generated by VASPKIT.            
   0.04454029  0.00000000  0.00000000       0.011
   0.04294957 -0.00159072  0.00000000       0.011
   0.04135885 -0.00318145  0.00000000       0.011
   0.03976812 -0.00477217  0.00000000       0.011
   0.03817740 -0.00636290  0.00000000       0.011
   0.03658667 -0.00795362  0.00000000       0.011
   0.03499595 -0.00954435  0.00000000       0.011
   0.03340522 -0.01113507  0.00000000       0.011
   0.03181450 -0.01272580  0.00000000       0.011
   0.03022377 -0.01431652  0.00000000       0.011
   0.02863305 -0.01590725  0.00000000       0.011
   0.02704232 -0.01749797  0.00000000       0.011
   0.02545160 -0.01908870  0.00000000       0.011
   0.02386087 -0.02067942  0.00000000       0.011
   0.02227015 -0.02227015  0.00000000       0.011
   0.02227015 -0.02227015  0.00000000       0.011
   0.02386087 -0.02386087  0.00000000       0.011
   0.02545160 -0.02545160  0.00000000       0.011
   0.02704232 -0.02704232  0.00000000       0.011
   0.02863305 -0.02863305  0.00000000       0.011
   0.03022377 -0.03022377  0.00000000       0.011
   0.03181450 -0.03181450  0.00000000       0.011
   0.03340522 -0.03340522  0.00000000       0.011
   0.03499595 -0.03499595  0.00000000       0.011
   0.03658667 -0.03658667  0.00000000       0.011
   0.03817740 -0.03817740  0.00000000       0.011
   0.03976812 -0.03976812  0.00000000       0.011
   0.04135885 -0.04135885  0.00000000       0.011
   0.04294957 -0.04294957  0.00000000       0.011
   0.04454029 -0.04454029  0.00000000       0.011
   0.04454029 -0.04454029  0.00000000       0.011
   0.04454029 -0.04135885  0.00000000       0.011
   0.04454029 -0.03817740  0.00000000       0.011
   0.04454029 -0.03499595  0.00000000       0.011
   0.04454029 -0.03181450  0.00000000       0.011
   0.04454029 -0.02863305  0.00000000       0.011
   0.04454029 -0.02545160  0.00000000       0.011
   0.04454029 -0.02227015  0.00000000       0.011
   0.04454029 -0.01908870  0.00000000       0.011
   0.04454029 -0.01590725  0.00000000       0.011
   0.04454029 -0.01272580  0.00000000       0.011
   0.04454029 -0.00954435  0.00000000       0.011
   0.04454029 -0.00636290  0.00000000       0.011
   0.04454029 -0.00318145  0.00000000       0.011
   0.04454029  0.00000000  0.00000000       0.011
   0.04454029  0.00000000  0.00000000       0.011
   0.04772174  0.00000000  0.00000000       0.011
   0.05090319  0.00000000  0.00000000       0.011
   0.05408464  0.00000000  0.00000000       0.011
   0.05726609  0.00000000  0.00000000       0.011
   0.06044754  0.00000000  0.00000000       0.011
   0.06362899  0.00000000  0.00000000       0.011
   0.06681044  0.00000000  0.00000000       0.011
   0.06999189  0.00000000  0.00000000       0.011
   0.07317334  0.00000000  0.00000000       0.011
   0.07635479  0.00000000  0.00000000       0.011
   0.07953624  0.00000000  0.00000000       0.011
   0.08271769  0.00000000  0.00000000       0.011
   0.08589914  0.00000000  0.00000000       0.011
   0.08908059  0.00000000  0.00000000       0.011
   0.08908059  0.00000000  0.00000000       0.011
   0.08748986 -0.00159072  0.00000000       0.011
   0.08589914 -0.00318145  0.00000000       0.011
   0.08430842 -0.00477217  0.00000000       0.011
   0.08271769 -0.00636290  0.00000000       0.011
   0.08112697 -0.00795362  0.00000000       0.011
   0.07953624 -0.00954435  0.00000000       0.011
   0.07794552 -0.01113507  0.00000000       0.011
   0.07635479 -0.01272580  0.00000000       0.011
   0.07476407 -0.01431652  0.00000000       0.011
   0.07317334 -0.01590725  0.00000000       0.011
   0.07158262 -0.01749797  0.00000000       0.011
   0.06999189 -0.01908870  0.00000000       0.011
   0.06840117 -0.02067942  0.00000000       0.011
   0.06681044 -0.02227015  0.00000000       0.011
   0.06681044 -0.02227015  0.00000000       0.011
   0.06521972 -0.02067942  0.00000000       0.011
   0.06362899 -0.01908870  0.00000000       0.011
   0.06203827 -0.01749797  0.00000000       0.011
   0.06044754 -0.01590725  0.00000000       0.011
   0.05885682 -0.01431652  0.00000000       0.011
   0.05726609 -0.01272580  0.00000000       0.011
   0.05567537 -0.01113507  0.00000000       0.011
   0.05408464 -0.00954435  0.00000000       0.011
   0.05249392 -0.00795362  0.00000000       0.011
   0.05090319 -0.00636290  0.00000000       0.011
   0.04931247 -0.00477217  0.00000000       0.011
   0.04772174 -0.00318145  0.00000000       0.011
   0.04613102 -0.00159072  0.00000000       0.011
   0.04454029  0.00000000  0.00000000       0.011
 
 k-points in reciprocal lattice and weights: K-Path Generated by VASPKIT.            
   0.50000000  0.50000000  0.00000000       0.011
   0.50000000  0.46428571  0.00000000       0.011
   0.50000000  0.42857143  0.00000000       0.011
   0.50000000  0.39285714  0.00000000       0.011
   0.50000000  0.35714286  0.00000000       0.011
   0.50000000  0.32142857  0.00000000       0.011
   0.50000000  0.28571429  0.00000000       0.011
   0.50000000  0.25000000  0.00000000       0.011
   0.50000000  0.21428571  0.00000000       0.011
   0.50000000  0.17857143  0.00000000       0.011
   0.50000000  0.14285714  0.00000000       0.011
   0.50000000  0.10714286  0.00000000       0.011
   0.50000000  0.07142857  0.00000000       0.011
   0.50000000  0.03571429  0.00000000       0.011
   0.50000000  0.00000000  0.00000000       0.011
   0.50000000  0.00000000  0.00000000       0.011
   0.53571429  0.00000000  0.00000000       0.011
   0.57142857  0.00000000  0.00000000       0.011
   0.60714286  0.00000000  0.00000000       0.011
   0.64285714  0.00000000  0.00000000       0.011
   0.67857143  0.00000000  0.00000000       0.011
   0.71428571  0.00000000  0.00000000       0.011
   0.75000000  0.00000000  0.00000000       0.011
   0.78571429  0.00000000  0.00000000       0.011
   0.82142857  0.00000000  0.00000000       0.011
   0.85714286  0.00000000  0.00000000       0.011
   0.89285714  0.00000000  0.00000000       0.011
   0.92857143  0.00000000  0.00000000       0.011
   0.96428571  0.00000000  0.00000000       0.011
   1.00000000  0.00000000  0.00000000       0.011
   1.00000000  0.00000000  0.00000000       0.011
   0.96428571  0.03571429  0.00000000       0.011
   0.92857143  0.07142857  0.00000000       0.011
   0.89285714  0.10714286  0.00000000       0.011
   0.85714286  0.14285714  0.00000000       0.011
   0.82142857  0.17857143  0.00000000       0.011
   0.78571429  0.21428571  0.00000000       0.011
   0.75000000  0.25000000  0.00000000       0.011
   0.71428571  0.28571429  0.00000000       0.011
   0.67857143  0.32142857  0.00000000       0.011
   0.64285714  0.35714286  0.00000000       0.011
   0.60714286  0.39285714  0.00000000       0.011
   0.57142857  0.42857143  0.00000000       0.011
   0.53571429  0.46428571  0.00000000       0.011
   0.50000000  0.50000000  0.00000000       0.011
   0.50000000  0.50000000  0.00000000       0.011
   0.53571429  0.53571429  0.00000000       0.011
   0.57142857  0.57142857  0.00000000       0.011
   0.60714286  0.60714286  0.00000000       0.011
   0.64285714  0.64285714  0.00000000       0.011
   0.67857143  0.67857143  0.00000000       0.011
   0.71428571  0.71428571  0.00000000       0.011
   0.75000000  0.75000000  0.00000000       0.011
   0.78571429  0.78571429  0.00000000       0.011
   0.82142857  0.82142857  0.00000000       0.011
   0.85714286  0.85714286  0.00000000       0.011
   0.89285714  0.89285714  0.00000000       0.011
   0.92857143  0.92857143  0.00000000       0.011
   0.96428571  0.96428571  0.00000000       0.011
   1.00000000  1.00000000  0.00000000       0.011
   1.00000000  1.00000000  0.00000000       0.011
   1.00000000  0.96428571  0.00000000       0.011
   1.00000000  0.92857143  0.00000000       0.011
   1.00000000  0.89285714  0.00000000       0.011
   1.00000000  0.85714286  0.00000000       0.011
   1.00000000  0.82142857  0.00000000       0.011
   1.00000000  0.78571429  0.00000000       0.011
   1.00000000  0.75000000  0.00000000       0.011
   1.00000000  0.71428571  0.00000000       0.011
   1.00000000  0.67857143  0.00000000       0.011
   1.00000000  0.64285714  0.00000000       0.011
   1.00000000  0.60714286  0.00000000       0.011
   1.00000000  0.57142857  0.00000000       0.011
   1.00000000  0.53571429  0.00000000       0.011
   1.00000000  0.50000000  0.00000000       0.011
   1.00000000  0.50000000  0.00000000       0.011
   0.96428571  0.50000000  0.00000000       0.011
   0.92857143  0.50000000  0.00000000       0.011
   0.89285714  0.50000000  0.00000000       0.011
   0.85714286  0.50000000  0.00000000       0.011
   0.82142857  0.50000000  0.00000000       0.011
   0.78571429  0.50000000  0.00000000       0.011
   0.75000000  0.50000000  0.00000000       0.011
   0.71428571  0.50000000  0.00000000       0.011
   0.67857143  0.50000000  0.00000000       0.011
   0.64285714  0.50000000  0.00000000       0.011
   0.60714286  0.50000000  0.00000000       0.011
   0.57142857  0.50000000  0.00000000       0.011
   0.53571429  0.50000000  0.00000000       0.011
   0.50000000  0.50000000  0.00000000       0.011
 
 position of ions in fractional coordinates (direct lattice) 
   0.00000000  0.00000000  0.50000000
   0.50000000  0.50000000  0.50000000
   0.02841605  0.25443003  0.50000000
   0.52841605  0.75443003  0.50000000
   0.97158395  0.74556997  0.50000000
   0.47158395  0.24556997  0.50000000
   0.24556997  0.52841605  0.50000000
   0.74556997  0.02841605  0.50000000
   0.75443003  0.47158395  0.50000000
   0.25443003  0.97158395  0.50000000
   0.68106212  0.53776742  0.50000000
   0.18106212  0.03776742  0.50000000
   0.31893788  0.46223258  0.50000000
   0.81893788  0.96223258  0.50000000
   0.96223258  0.18106212  0.50000000
   0.46223258  0.68106212  0.50000000
   0.03776742  0.81893788  0.50000000
   0.53776742  0.31893788  0.50000000
   0.08331585  0.21383689  0.50000000
   0.58331585  0.71383689  0.50000000
   0.91668415  0.78616311  0.50000000
   0.41668415  0.28616311  0.50000000
   0.28616311  0.58331585  0.50000000
   0.78616311  0.08331585  0.50000000
   0.71383689  0.41668415  0.50000000
   0.21383689  0.91668415  0.50000000
   0.16654566  0.24545149  0.50000000
   0.66654566  0.74545149  0.50000000
   0.83345434  0.75454851  0.50000000
   0.33345434  0.25454851  0.50000000
   0.25454851  0.66654566  0.50000000
   0.75454851  0.16654566  0.50000000
   0.74545149  0.33345434  0.50000000
   0.24545149  0.83345434  0.50000000
   0.72126725  0.67197148  0.50000000
   0.22126725  0.17197148  0.50000000
   0.27873275  0.32802852  0.50000000
   0.77873275  0.82802852  0.50000000
   0.82802852  0.22126725  0.50000000
   0.32802852  0.72126725  0.50000000
   0.17197148  0.77873275  0.50000000
   0.67197148  0.27873275  0.50000000
   0.66588685  0.60288523  0.50000000
   0.16588685  0.10288523  0.50000000
   0.33411315  0.39711477  0.50000000
   0.83411315  0.89711477  0.50000000
   0.89711477  0.16588685  0.50000000
   0.39711477  0.66588685  0.50000000
   0.10288523  0.83411315  0.50000000
   0.60288523  0.33411315  0.50000000
   0.08303636  0.12660439  0.50000000
   0.58303636  0.62660439  0.50000000
   0.91696364  0.87339561  0.50000000
   0.41696364  0.37339561  0.50000000
   0.37339561  0.58303636  0.50000000
   0.87339561  0.08303636  0.50000000
   0.62660439  0.41696364  0.50000000
   0.12660439  0.91696364  0.50000000
   0.19406003  0.32536812  0.50000000
   0.69406003  0.82536812  0.50000000
   0.80593997  0.67463188  0.50000000
   0.30593997  0.17463188  0.50000000
   0.17463188  0.69406003  0.50000000
   0.67463188  0.19406003  0.50000000
   0.82536812  0.30593997  0.50000000
   0.32536812  0.80593997  0.50000000
 
 position of ions in cartesian coordinates  (Angst):
   0.00000000  0.00000000  6.46001602
  11.22579008  0.00000000  6.46001602
   3.17517066  2.53718550  6.46001602
  14.40096074  2.53718550  6.46001602
  19.27640950 -2.53718550  6.46001602
   8.05061942 -2.53718550  6.46001602
   8.68860458  3.17517066  6.46001602
   8.68860458 -8.05061942  6.46001602
  13.76297557 -3.17517066  6.46001602
  13.76297557  8.05061942  6.46001602
  13.68232462 -1.60859617  6.46001602
   2.45653454 -1.60859617  6.46001602
   8.76925554  1.60859617  6.46001602
  19.99504562  1.60859617  6.46001602
  12.83438625 -8.76925554  6.46001602
  12.83438625  2.45653454  6.46001602
   9.61719390  8.76925554  6.46001602
   9.61719391 -2.45653454  6.46001602
   3.33577432  1.46520177  6.46001602
  14.56156440  1.46520177  6.46001602
  19.11580584 -1.46520177  6.46001602
   7.89001576 -1.46520177  6.46001602
   9.76058831  3.33577432  6.46001602
   9.76058831 -7.89001576  6.46001602
  12.69099185 -3.33577432  6.46001602
  12.69099185  7.89001576  6.46001602
   4.62499351  0.88578026  6.46001602
  15.85078359  0.88578026  6.46001602
  17.82658664 -0.88578026  6.46001602
   6.60079656 -0.88578026  6.46001602
  10.34000981  4.62499351  6.46001602
  10.34000981 -6.60079656  6.46001602
  12.11157034 -4.62499351  6.46001602
  12.11157034  6.60079656  6.46001602
  15.64020549 -0.55338395  6.46001602
   4.41441541 -0.55338395  6.46001602
   6.81137467  0.55338395  6.46001602
  18.03716475  0.55338395  6.46001602
  11.77917403 -6.81137467  6.46001602
  11.77917403  4.41441541  6.46001602
  10.67240613  6.81137467  6.46001602
  10.67240613 -4.41441541  6.46001602
  14.24296900 -0.70724293  6.46001602
   3.01717892 -0.70724293  6.46001602
   8.20861116  0.70724294  6.46001602
  19.43440124  0.70724294  6.46001602
  11.93303301 -8.20861116  6.46001602
  11.93303301  3.01717892  6.46001602
  10.51854714  8.20861116  6.46001602
  10.51854714 -3.01717892  6.46001602
   2.35338301  0.48908555  6.46001602
  13.57917309  0.48908556  6.46001602
  20.09819714 -0.48908555  6.46001602
   8.87240707 -0.48908555  6.46001602
  10.73670452  2.35338301  6.46001602
  10.73670452 -8.87240707  6.46001602
  11.71487563 -2.35338301  6.46001602
  11.71487563  8.87240707  6.46001602
   5.83099141  1.47403709  6.46001602
  17.05678149  1.47403710  6.46001602
  16.62058875 -1.47403709  6.46001602
   5.39479867 -1.47403709  6.46001602
   9.75175298  5.83099141  6.46001602
   9.75175298 -5.39479867  6.46001602
  12.69982717 -5.83099141  6.46001602
  12.69982717  5.39479867  6.46001602
 


--------------------------------------------------------------------------------------------------------


 k-point   1 :   0.5000 0.5000 0.0000  plane waves:   82784
 k-point   2 :   0.5000 0.4643 0.0000  plane waves:   82736
 k-point   3 :   0.5000 0.4286 0.0000  plane waves:   82710
 k-point   4 :   0.5000 0.3929 0.0000  plane waves:   82706
 k-point   5 :   0.5000 0.3571 0.0000  plane waves:   82682
 k-point   6 :   0.5000 0.3214 0.0000  plane waves:   82668
 k-point   7 :   0.5000 0.2857 0.0000  plane waves:   82674
 k-point   8 :   0.5000 0.2500 0.0000  plane waves:   82642
 k-point   9 :   0.5000 0.2143 0.0000  plane waves:   82676
 k-point  10 :   0.5000 0.1786 0.0000  plane waves:   82716
 k-point  11 :   0.5000 0.1429 0.0000  plane waves:   82686
 k-point  12 :   0.5000 0.1071 0.0000  plane waves:   82678
 k-point  13 :   0.5000 0.0714 0.0000  plane waves:   82708
 k-point  14 :   0.5000 0.0357 0.0000  plane waves:   82722
 k-point  15 :   0.5000 0.0000 0.0000  plane waves:   82710
 k-point  16 :   0.5000 0.0000 0.0000  plane waves:   82710
 k-point  17 :   0.5357 0.0000 0.0000  plane waves:   82704
 k-point  18 :   0.5714 0.0000 0.0000  plane waves:   82690
 k-point  19 :   0.6071 0.0000 0.0000  plane waves:   82686
 k-point  20 :   0.6429 0.0000 0.0000  plane waves:   82688
 k-point  21 :   0.6786 0.0000 0.0000  plane waves:   82698
 k-point  22 :   0.7143 0.0000 0.0000  plane waves:   82730
 k-point  23 :   0.7500 0.0000 0.0000  plane waves:   82704
 k-point  24 :   0.7857 0.0000 0.0000  plane waves:   82688
 k-point  25 :   0.8214 0.0000 0.0000  plane waves:   82674
 k-point  26 :   0.8571 0.0000 0.0000  plane waves:   82660
 k-point  27 :   0.8929 0.0000 0.0000  plane waves:   82704
 k-point  28 :   0.9286 0.0000 0.0000  plane waves:   82692
 k-point  29 :   0.9643 0.0000 0.0000  plane waves:   82705
 k-point  30 :   1.0000 0.0000 0.0000  plane waves:   82671
 k-point  31 :   1.0000 0.0000 0.0000  plane waves:   82671
 k-point  32 :   0.9643 0.0357 0.0000  plane waves:   82723
 k-point  33 :   0.9286 0.0714 0.0000  plane waves:   82705
 k-point  34 :   0.8929 0.1071 0.0000  plane waves:   82663
 k-point  35 :   0.8571 0.1429 0.0000  plane waves:   82693
 k-point  36 :   0.8214 0.1786 0.0000  plane waves:   82705
 k-point  37 :   0.7857 0.2143 0.0000  plane waves:   82679
 k-point  38 :   0.7500 0.2500 0.0000  plane waves:   82641
 k-point  39 :   0.7143 0.2857 0.0000  plane waves:   82641
 k-point  40 :   0.6786 0.3214 0.0000  plane waves:   82635
 k-point  41 :   0.6429 0.3571 0.0000  plane waves:   82671
 k-point  42 :   0.6071 0.3929 0.0000  plane waves:   82675
 k-point  43 :   0.5714 0.4286 0.0000  plane waves:   82735
 k-point  44 :   0.5357 0.4643 0.0000  plane waves:   82729
 k-point  45 :   0.5000 0.5000 0.0000  plane waves:   82784
 k-point  46 :   0.5000 0.5000 0.0000  plane waves:   82784
 k-point  47 :   0.5357 0.5357 0.0000  plane waves:   82729
 k-point  48 :   0.5714 0.5714 0.0000  plane waves:   82735
 k-point  49 :   0.6071 0.6071 0.0000  plane waves:   82675
 k-point  50 :   0.6429 0.6429 0.0000  plane waves:   82671
 k-point  51 :   0.6786 0.6786 0.0000  plane waves:   82635
 k-point  52 :   0.7143 0.7143 0.0000  plane waves:   82641
 k-point  53 :   0.7500 0.7500 0.0000  plane waves:   82641
 k-point  54 :   0.7857 0.7857 0.0000  plane waves:   82679
 k-point  55 :   0.8214 0.8214 0.0000  plane waves:   82705
 k-point  56 :   0.8571 0.8571 0.0000  plane waves:   82693
 k-point  57 :   0.8929 0.8929 0.0000  plane waves:   82663
 k-point  58 :   0.9286 0.9286 0.0000  plane waves:   82705
 k-point  59 :   0.9643 0.9643 0.0000  plane waves:   82723
 k-point  60 :   1.0000 1.0000 0.0000  plane waves:   82671
 k-point  61 :   1.0000 1.0000 0.0000  plane waves:   82671
 k-point  62 :   1.0000 0.9643 0.0000  plane waves:   82705
 k-point  63 :   1.0000 0.9286 0.0000  plane waves:   82692
 k-point  64 :   1.0000 0.8929 0.0000  plane waves:   82704
 k-point  65 :   1.0000 0.8571 0.0000  plane waves:   82660
 k-point  66 :   1.0000 0.8214 0.0000  plane waves:   82674
 k-point  67 :   1.0000 0.7857 0.0000  plane waves:   82688
 k-point  68 :   1.0000 0.7500 0.0000  plane waves:   82704
 k-point  69 :   1.0000 0.7143 0.0000  plane waves:   82730
 k-point  70 :   1.0000 0.6786 0.0000  plane waves:   82698
 k-point  71 :   1.0000 0.6429 0.0000  plane waves:   82688
 k-point  72 :   1.0000 0.6071 0.0000  plane waves:   82686
 k-point  73 :   1.0000 0.5714 0.0000  plane waves:   82690
 k-point  74 :   1.0000 0.5357 0.0000  plane waves:   82704
 k-point  75 :   1.0000 0.5000 0.0000  plane waves:   82710
 k-point  76 :   1.0000 0.5000 0.0000  plane waves:   82710
 k-point  77 :   0.9643 0.5000 0.0000  plane waves:   82722
 k-point  78 :   0.9286 0.5000 0.0000  plane waves:   82708
 k-point  79 :   0.8929 0.5000 0.0000  plane waves:   82678
 k-point  80 :   0.8571 0.5000 0.0000  plane waves:   82686
 k-point  81 :   0.8214 0.5000 0.0000  plane waves:   82716
 k-point  82 :   0.7857 0.5000 0.0000  plane waves:   82676
 k-point  83 :   0.7500 0.5000 0.0000  plane waves:   82642
 k-point  84 :   0.7143 0.5000 0.0000  plane waves:   82674
 k-point  85 :   0.6786 0.5000 0.0000  plane waves:   82668
 k-point  86 :   0.6429 0.5000 0.0000  plane waves:   82682
 k-point  87 :   0.6071 0.5000 0.0000  plane waves:   82706
 k-point  88 :   0.5714 0.5000 0.0000  plane waves:   82710
 k-point  89 :   0.5357 0.5000 0.0000  plane waves:   82736
 k-point  90 :   0.5000 0.5000 0.0000  plane waves:   82784

 maximum and minimum number of plane-waves per node :      2612     2539

 maximum number of plane-waves:     82784
 maximum index in each direction: 
   IXMAX=   28   IYMAX=   28   IZMAX=   23
   IXMIN=  -29   IYMIN=  -29   IZMIN=  -23


 real space projection operators:
  total allocation   :       4152.84 KBytes
  max/ min on nodes  :        149.56        109.06


 parallel 3D FFT for wavefunctions:
    minimum data exchange during FFTs selected (reduces bandwidth)
 parallel 3D FFT for charge:
    minimum data exchange during FFTs selected (reduces bandwidth)


 total amount of memory used by VASP MPI-rank0   349207. kBytes
=======================================================================

   base      :      30000. kBytes
   nonlr-proj:       2085. kBytes
   fftplans  :       3916. kBytes
   grid      :      10368. kBytes
   one-center:         93. kBytes
   wavefun   :     302745. kBytes
 
     INWAV:  cpu time      0.0000: real time      0.0000
 initial charge density was supplied:
 number of electron     247.9999990 magnetization       0.0000000
 keeping initial charge density in first step


--------------------------------------------------------------------------------------------------------


 Maximum index for non-local projection operator          173
 Maximum index for augmentation-charges          397 (set IRDMAX)


--------------------------------------------------------------------------------------------------------


 First call to EWALD:  gamma=   0.120
 Maximum number of real-space cells 3x 3x 3
 Maximum number of reciprocal cells 3x 3x 2

    FEWALD:  cpu time      0.0030: real time      0.0040


--------------------------------------- Iteration      1(   1)  ---------------------------------------


    POTLOK:  cpu time      0.1700: real time      0.1822
    SETDIJ:  cpu time      0.0166: real time      0.0187
     EDDAV:  cpu time     55.6329: real time     55.7553
       DOS:  cpu time      0.0274: real time      0.0296
    --------------------------------------------
      LOOP:  cpu time     55.8469: real time     55.9859

 eigenvalue-minimisations  : 64704
 total energy-change (2. order) : 0.1904382E+04  (-0.8743060E+04)
 number of electron     247.9999990 magnetization       0.0000000
 augmentation part      247.9999990 magnetization       0.0000000

 Free energy of the ion-electron system (eV)
  ---------------------------------------------------
  alpha Z        PSCENC =        92.54623987
  Ewald energy   TEWEN  =     15198.97762707
  -Hartree energ DENC   =    -25623.43387329
  -exchange      EXHF   =         0.00000000
  -V(xc)+E(xc)   XCENC  =       918.86747257
  PAW double counting   =     24332.60639625   -24468.64750649
  entropy T*S    EENTRO =        -0.00547831
  eigenvalues    EBANDS =      -983.44197354
  atomic energy  EATOM  =     12436.91308043
  Solvation  Ediel_sol  =         0.00000000
  ---------------------------------------------------
  free energy    TOTEN  =      1904.38198456 eV

  energy without entropy =     1904.38746287  energy(sigma->0) =     1904.38381066


--------------------------------------------------------------------------------------------------------




--------------------------------------- Iteration      1(   2)  ---------------------------------------


     EDDAV:  cpu time     70.2385: real time     70.2578
       DOS:  cpu time      0.0228: real time      0.0228
    --------------------------------------------
      LOOP:  cpu time     70.2613: real time     70.2806

 eigenvalue-minimisations  : 88096
 total energy-change (2. order) :-0.1890455E+04  (-0.1781579E+04)
 number of electron     247.9999990 magnetization       0.0000000
 augmentation part      247.9999990 magnetization       0.0000000

 Free energy of the ion-electron system (eV)
  ---------------------------------------------------
  alpha Z        PSCENC =        92.54623987
  Ewald energy   TEWEN  =     15198.97762707
  -Hartree energ DENC   =    -25623.43387329
  -exchange      EXHF   =         0.00000000
  -V(xc)+E(xc)   XCENC  =       918.86747257
  PAW double counting   =     24332.60639625   -24468.64750649
  entropy T*S    EENTRO =         0.00184152
  eigenvalues    EBANDS =     -2873.90457588
  atomic energy  EATOM  =     12436.91308043
  Solvation  Ediel_sol  =         0.00000000
  ---------------------------------------------------
  free energy    TOTEN  =        13.92670206 eV

  energy without entropy =       13.92486053  energy(sigma->0) =       13.92608821


--------------------------------------------------------------------------------------------------------




--------------------------------------- Iteration      1(   3)  ---------------------------------------


     EDDAV:  cpu time     60.7305: real time     60.7433
       DOS:  cpu time      0.0212: real time      0.0212
    --------------------------------------------
      LOOP:  cpu time     60.7517: real time     60.7645

 eigenvalue-minimisations  : 72616
 total energy-change (2. order) :-0.4706131E+03  (-0.4610754E+03)
 number of electron     247.9999990 magnetization       0.0000000
[...]
   0.309E+02 0.203E+03 0.416E-11   -.341E+02 -.207E+03 -.129E-13   0.299E+01 0.452E+01 0.401E-15   -.220E-02 -.188E-02 -.154E-11
   0.309E+02 0.203E+03 0.206E-11   -.341E+02 -.207E+03 -.129E-13   0.299E+01 0.452E+01 0.401E-15   -.241E-02 -.166E-02 0.151E-12
   0.203E+03 -.309E+02 0.434E-12   -.207E+03 0.341E+02 -.927E-14   0.452E+01 -.299E+01 0.813E-16   -.188E-02 0.220E-02 0.848E-13
   0.203E+03 -.309E+02 0.224E-11   -.207E+03 0.341E+02 -.925E-14   0.452E+01 -.299E+01 0.816E-16   -.166E-02 0.241E-02 -.135E-11
   -.203E+03 0.309E+02 -.105E-10   0.207E+03 -.341E+02 0.929E-14   -.452E+01 0.299E+01 -.813E-16   0.188E-02 -.220E-02 0.189E-12
   -.203E+03 0.309E+02 0.666E-12   0.207E+03 -.341E+02 0.930E-14   -.452E+01 0.299E+01 -.816E-16   0.166E-02 -.241E-02 0.637E-13
   -.399E+00 -.103E+03 0.712E-12   -.180E+01 0.102E+03 0.539E-14   0.212E+01 0.121E+01 0.178E-15   0.934E-03 0.133E-02 -.143E-12
   -.414E+00 -.103E+03 -.385E-11   -.180E+01 0.102E+03 0.540E-14   0.212E+01 0.120E+01 0.177E-15   0.824E-03 0.103E-02 0.114E-11
   0.399E+00 0.103E+03 0.557E-11   0.180E+01 -.102E+03 -.541E-14   -.212E+01 -.121E+01 -.178E-15   -.934E-03 -.133E-02 -.164E-11
   0.414E+00 0.103E+03 0.164E-11   0.180E+01 -.102E+03 -.543E-14   -.212E+01 -.120E+01 -.177E-15   -.824E-03 -.103E-02 0.328E-12
   0.103E+03 -.399E+00 -.108E-11   -.102E+03 -.180E+01 -.564E-14   -.121E+01 0.212E+01 0.484E-16   -.133E-02 0.934E-03 -.430E-13
   0.103E+03 -.414E+00 0.278E-11   -.102E+03 -.180E+01 -.563E-14   -.120E+01 0.212E+01 0.492E-16   -.103E-02 0.824E-03 -.855E-12
   -.103E+03 0.399E+00 0.143E-11   0.102E+03 0.180E+01 0.567E-14   0.121E+01 -.212E+01 -.484E-16   0.133E-02 -.934E-03 -.204E-12
   -.103E+03 0.414E+00 -.142E-11   0.102E+03 0.180E+01 0.568E-14   0.120E+01 -.212E+01 -.492E-16   0.103E-02 -.824E-03 -.129E-12
   0.108E+02 0.793E+02 -.454E-11   -.123E+02 -.776E+02 -.497E-14   0.161E+01 -.167E+01 -.302E-17   0.197E-02 0.121E-03 0.909E-14
   0.108E+02 0.792E+02 0.449E-12   -.123E+02 -.776E+02 -.498E-14   0.161E+01 -.165E+01 -.208E-17   0.222E-02 0.357E-03 0.174E-12
   -.108E+02 -.793E+02 -.621E-12   0.123E+02 0.776E+02 0.485E-14   -.161E+01 0.167E+01 0.302E-17   -.197E-02 -.121E-03 0.139E-12
   -.108E+02 -.792E+02 -.394E-11   0.123E+02 0.776E+02 0.488E-14   -.161E+01 0.165E+01 0.208E-17   -.222E-02 -.357E-03 -.101E-11
   -.793E+02 0.108E+02 0.275E-11   0.776E+02 -.123E+02 0.350E-14   0.167E+01 0.161E+01 0.176E-15   -.121E-03 0.197E-02 -.102E-11
   -.792E+02 0.108E+02 0.245E-11   0.776E+02 -.123E+02 0.349E-14   0.165E+01 0.161E+01 0.175E-15   -.357E-03 0.222E-02 0.807E-14
   0.793E+02 -.108E+02 0.714E-12   -.776E+02 0.123E+02 -.349E-14   -.167E+01 -.161E+01 -.176E-15   0.121E-03 -.197E-02 -.294E-12
   0.792E+02 -.108E+02 -.454E-11   -.776E+02 0.123E+02 -.350E-14   -.165E+01 -.161E+01 -.175E-15   0.357E-03 -.222E-02 0.637E-13
   -.425E+01 0.154E+03 -.337E-11   0.518E+01 -.160E+03 -.829E-14   -.112E+01 0.594E+01 0.258E-15   0.113E-02 -.137E-02 0.909E-12
   -.424E+01 0.154E+03 0.818E-12   0.518E+01 -.160E+03 -.829E-14   -.112E+01 0.596E+01 0.258E-15   0.956E-03 -.106E-02 -.408E-13
   0.425E+01 -.154E+03 0.205E-11   -.518E+01 0.160E+03 0.832E-14   0.112E+01 -.594E+01 -.258E-15   -.113E-02 0.137E-02 -.185E-12
   0.424E+01 -.154E+03 0.279E-11   -.518E+01 0.160E+03 0.835E-14   0.112E+01 -.596E+01 -.258E-15   -.956E-03 0.106E-02 -.192E-11
   -.154E+03 -.425E+01 0.187E-11   0.160E+03 0.518E+01 0.883E-14   -.594E+01 -.112E+01 -.377E-15   0.137E-02 0.113E-02 -.134E-11
   -.154E+03 -.424E+01 -.103E-11   0.160E+03 0.518E+01 0.882E-14   -.596E+01 -.112E+01 -.378E-15   0.106E-02 0.956E-03 0.255E-12
   0.154E+03 0.425E+01 -.186E-12   -.160E+03 -.518E+01 -.876E-14   0.594E+01 0.112E+01 0.377E-15   -.137E-02 -.113E-02 -.354E-12
   0.154E+03 0.424E+01 0.269E-11   -.160E+03 -.518E+01 -.878E-14   0.596E+01 0.112E+01 0.378E-15   -.106E-02 -.956E-03 0.696E-13
   0.674E+02 -.600E+02 -.113E-12   -.902E+02 0.634E+02 -.146E-14   0.230E+02 -.378E+01 0.103E-14   0.146E-02 0.152E-02 -.719E-12
   0.674E+02 -.599E+02 -.523E-11   -.902E+02 0.634E+02 -.146E-14   0.230E+02 -.380E+01 0.102E-14   0.156E-02 0.837E-03 0.226E-11
   -.674E+02 0.600E+02 0.614E-11   0.902E+02 -.634E+02 0.134E-14   -.230E+02 0.378E+01 -.103E-14   -.146E-02 -.152E-02 -.212E-11
   -.674E+02 0.599E+02 0.299E-11   0.902E+02 -.634E+02 0.131E-14   -.230E+02 0.380E+01 -.102E-14   -.156E-02 -.837E-03 -.163E-12
   0.600E+02 0.674E+02 0.269E-11   -.634E+02 -.902E+02 -.836E-14   0.378E+01 0.230E+02 0.143E-14   -.152E-02 0.146E-02 0.107E-12
   0.599E+02 0.674E+02 0.248E-11   -.634E+02 -.902E+02 -.834E-14   0.380E+01 0.230E+02 0.143E-14   -.837E-03 0.156E-02 -.250E-11
   -.600E+02 -.674E+02 0.643E-11   0.634E+02 0.902E+02 0.832E-14   -.378E+01 -.230E+02 -.143E-14   0.152E-02 -.146E-02 0.295E-12
   -.599E+02 -.674E+02 -.496E-12   0.634E+02 0.902E+02 0.834E-14   -.380E+01 -.230E+02 -.143E-14   0.837E-03 -.156E-02 0.983E-14
   -.277E+02 -.306E+03 -.811E-12   0.331E+02 0.340E+03 0.199E-13   -.527E+01 -.349E+02 -.215E-14   -.133E-02 0.514E-04 0.627E-13
   -.277E+02 -.306E+03 0.195E-11   0.331E+02 0.340E+03 0.200E-13   -.526E+01 -.349E+02 -.215E-14   -.156E-02 -.604E-04 0.404E-13
   0.277E+02 0.306E+03 0.758E-11   -.331E+02 -.340E+03 -.199E-13   0.527E+01 0.349E+02 0.215E-14   0.133E-02 -.514E-04 -.229E-11
   0.277E+02 0.306E+03 0.578E-12   -.331E+02 -.340E+03 -.200E-13   0.526E+01 0.349E+02 0.215E-14   0.156E-02 0.604E-04 0.496E-12
   0.306E+03 -.277E+02 0.124E-11   -.340E+03 0.331E+02 -.166E-13   0.349E+02 -.527E+01 0.158E-14   -.514E-04 -.133E-02 -.231E-12
   0.306E+03 -.277E+02 0.349E-11   -.340E+03 0.331E+02 -.167E-13   0.349E+02 -.526E+01 0.159E-14   0.604E-04 -.156E-02 -.223E-12
   -.306E+03 0.277E+02 0.351E-11   0.340E+03 -.331E+02 0.167E-13   -.349E+02 0.527E+01 -.158E-14   0.514E-04 0.133E-02 -.606E-12
   -.306E+03 0.277E+02 0.217E-12   0.340E+03 -.331E+02 0.167E-13   -.349E+02 0.526E+01 -.159E-14   -.604E-04 0.156E-02 -.111E-12
 -----------------------------------------------------------------------------------------------
   0.120E-10 -.190E-10 0.305E-10   -.341E-12 0.355E-13 0.379E-15   -.142E-13 0.000E+00 0.398E-21   -.480E-11 0.135E-10 -.115E-10
 
 
 POSITION                                       TOTAL-FORCE (eV/Angst)
 -----------------------------------------------------------------------------------
      0.00000      0.00000      6.46002        -0.000000      0.000000     -0.000000
     11.22579      0.00000      6.46002        -0.000000      0.000000      0.000000
      3.17517      2.53719      6.46002         0.011229     -0.012638     -0.000000
     14.40096      2.53719      6.46002         0.011962     -0.013265     -0.000000
     19.27641     -2.53719      6.46002        -0.011229      0.012638      0.000000
      8.05062     -2.53719      6.46002        -0.011962      0.013265      0.000000
      8.68860      3.17517      6.46002         0.012638      0.011229      0.000000
      8.68860     -8.05062      6.46002         0.013265      0.011962      0.000000
     13.76298     -3.17517      6.46002        -0.012638     -0.011229     -0.000000
     13.76298      8.05062      6.46002        -0.013265     -0.011962     -0.000000
     13.68232     -1.60860      6.46002         0.027023     -0.008712      0.000000
      2.45653     -1.60860      6.46002         0.026532     -0.009484      0.000000
      8.76926      1.60860      6.46002        -0.027023      0.008712     -0.000000
     19.99505      1.60860      6.46002        -0.026532      0.009484     -0.000000
     12.83439     -8.76926      6.46002         0.008712      0.027023      0.000000
     12.83439      2.45653      6.46002         0.009484      0.026532      0.000000
      9.61719      8.76926      6.46002        -0.008712     -0.027023     -0.000000
      9.61719     -2.45653      6.46002        -0.009484     -0.026532     -0.000000
      3.33577      1.46520      6.46002         0.194173      0.084844      0.000000
     14.56156      1.46520      6.46002         0.204109      0.077895      0.000000
     19.11581     -1.46520      6.46002        -0.194173     -0.084844     -0.000000
      7.89002     -1.46520      6.46002        -0.204109     -0.077895     -0.000000
      9.76059      3.33577      6.46002        -0.084844      0.194173      0.000000
      9.76059     -7.89002      6.46002        -0.077895      0.204109      0.000000
     12.69099     -3.33577      6.46002         0.084844     -0.194173     -0.000000
     12.69099      7.89002      6.46002         0.077895     -0.204109     -0.000000
      4.62499      0.88578      6.46002        -0.075588     -0.007594     -0.000000
     15.85078      0.88578      6.46002        -0.091725     -0.003539     -0.000000
     17.82659     -0.88578      6.46002         0.075588      0.007594      0.000000
      6.60080     -0.88578      6.46002         0.091725      0.003539      0.000000
     10.34001      4.62499      6.46002         0.007594     -0.075588     -0.000000
     10.34001     -6.60080      6.46002         0.003539     -0.091725     -0.000000
     12.11157     -4.62499      6.46002        -0.007594      0.075588      0.000000
     12.11157      6.60080      6.46002        -0.003539      0.091725      0.000000
     15.64021     -0.55338      6.46002         0.122620      0.035529      0.000000
      4.41442     -0.55338      6.46002         0.123326      0.026654      0.000000
      6.81137      0.55338      6.46002        -0.122620     -0.035529     -0.000000
     18.03716      0.55338      6.46002        -0.123326     -0.026654     -0.000000
     11.77917     -6.81137      6.46002        -0.035529      0.122620      0.000000
     11.77917      4.41442      6.46002        -0.026654      0.123326      0.000000
     10.67241      6.81137      6.46002         0.035529     -0.122620     -0.000000
     10.67241     -4.41442      6.46002         0.026654     -0.123326     -0.000000
     14.24297     -0.70724      6.46002        -0.191643      0.172687     -0.000000
      3.01718     -0.70724      6.46002        -0.177602      0.167232     -0.000000
      8.20861      0.70724      6.46002         0.191643     -0.172687      0.000000
     19.43440      0.70724      6.46002         0.177602     -0.167232      0.000000
     11.93303     -8.20861      6.46002        -0.172687     -0.191643     -0.000000
     11.93303      3.01718      6.46002        -0.167232     -0.177602     -0.000000
     10.51855      8.20861      6.46002         0.172687      0.191643      0.000000
     10.51855     -3.01718      6.46002         0.167232      0.177602      0.000000
      2.35338      0.48909      6.46002         0.154411     -0.305467     -0.000000
     13.57917      0.48909      6.46002         0.165852     -0.306597     -0.000000
     20.09820     -0.48909      6.46002        -0.154411      0.305467      0.000000
      8.87241     -0.48909      6.46002        -0.165852      0.306597      0.000000
     10.73670      2.35338      6.46002         0.305467      0.154411      0.000000
     10.73670     -8.87241      6.46002         0.306597      0.165852      0.000000
     11.71488     -2.35338      6.46002        -0.305467     -0.154411     -0.000000
     11.71488      8.87241      6.46002        -0.306597     -0.165852     -0.000000
      5.83099      1.47404      6.46002         0.132158     -0.027255      0.000000
     17.05678      1.47404      6.46002         0.141457     -0.029615      0.000000
     16.62059     -1.47404      6.46002        -0.132158      0.027255     -0.000000
      5.39480     -1.47404      6.46002        -0.141457      0.029615     -0.000000
      9.75175      5.83099      6.46002         0.027255      0.132158      0.000000
      9.75175     -5.39480      6.46002         0.029615      0.141457      0.000000
     12.69983     -5.83099      6.46002        -0.027255     -0.132158     -0.000000
     12.69983      5.39480      6.46002        -0.029615     -0.141457     -0.000000
 -----------------------------------------------------------------------------------
    total drift:                                0.000000     -0.000000      0.000000


--------------------------------------------------------------------------------------------------------



  FREE ENERGIE OF THE ION-ELECTRON SYSTEM (eV)
  ---------------------------------------------------
  free  energy   TOTEN  =      -482.82074732 eV

  energy  without entropy=     -482.86065625  energy(sigma->0) =     -482.83405030
 


--------------------------------------------------------------------------------------------------------


    POTLOK:  cpu time      0.1316: real time      0.1349


--------------------------------------------------------------------------------------------------------


     LOOP+:  cpu time    700.4291: real time    702.6082
    4ORBIT:  cpu time      0.0000: real time      0.0000



 total charge

# of ion       s       p       d       tot
------------------------------------------
    1        0.180   6.083   3.978  10.241
    2        0.180   6.083   3.978  10.241
    3        0.642   0.051   0.000   0.693
    4        0.642   0.051   0.000   0.693
    5        0.642   0.051   0.000   0.693
    6        0.642   0.051   0.000   0.693
    7        0.642   0.051   0.000   0.693
    8        0.642   0.051   0.000   0.693
    9        0.642   0.051   0.000   0.693
   10        0.642   0.051   0.000   0.693
   11        0.667   0.061   0.000   0.729
   12        0.667   0.061   0.000   0.728
   13        0.667   0.061   0.000   0.729
   14        0.667   0.061   0.000   0.728
   15        0.667   0.061   0.000   0.729
   16        0.667   0.061   0.000   0.728
   17        0.667   0.061   0.000   0.729
   18        0.667   0.061   0.000   0.728
   19        0.863   1.738   0.000   2.602
   20        0.863   1.738   0.000   2.602
   21        0.863   1.738   0.000   2.602
   22        0.863   1.738   0.000   2.602
   23        0.863   1.738   0.000   2.602
   24        0.863   1.738   0.000   2.602
   25        0.863   1.738   0.000   2.602
   26        0.863   1.738   0.000   2.602
   27        0.869   1.791   0.000   2.660
   28        0.869   1.791   0.000   2.660
   29        0.869   1.791   0.000   2.660
   30        0.869   1.791   0.000   2.660
   31        0.869   1.791   0.000   2.660
   32        0.869   1.791   0.000   2.660
   33        0.869   1.791   0.000   2.660
   34        0.869   1.791   0.000   2.660
   35        0.868   1.795   0.000   2.664
   36        0.868   1.795   0.000   2.664
   37        0.868   1.795   0.000   2.664
   38        0.868   1.795   0.000   2.664
   39        0.868   1.795   0.000   2.664
   40        0.868   1.795   0.000   2.664
   41        0.868   1.795   0.000   2.664
   42        0.868   1.795   0.000   2.664
   43        0.876   1.768   0.000   2.644
   44        0.876   1.768   0.000   2.644
   45        0.876   1.768   0.000   2.644
   46        0.876   1.768   0.000   2.644
   47        0.876   1.768   0.000   2.644
   48        0.876   1.768   0.000   2.644
   49        0.876   1.768   0.000   2.644
   50        0.876   1.768   0.000   2.644
   51        1.236   2.601   0.000   3.836
   52        1.236   2.601   0.000   3.836
   53        1.236   2.601   0.000   3.836
   54        1.236   2.601   0.000   3.836
   55        1.236   2.601   0.000   3.836
   56        1.236   2.601   0.000   3.836
   57        1.236   2.601   0.000   3.836
   58        1.236   2.601   0.000   3.836
   59        1.266   2.588   0.000   3.855
   60        1.266   2.589   0.000   3.855
   61        1.266   2.588   0.000   3.855
   62        1.266   2.589   0.000   3.855
   63        1.266   2.588   0.000   3.855
   64        1.266   2.589   0.000   3.855
   65        1.266   2.588   0.000   3.855
   66        1.266   2.589   0.000   3.855
--------------------------------------------------
tot         58.663 111.318   7.956 177.937



 magnetization (x)

# of ion       s       p       d       tot
------------------------------------------
    1        0.067   0.017   3.724   3.808
    2       -0.067  -0.017  -3.724  -3.808
    3       -0.005   0.002   0.000  -0.002
    4       -0.004   0.002   0.000  -0.002
    5       -0.005   0.002   0.000  -0.002
    6       -0.004   0.002   0.000  -0.002
    7        0.005  -0.002   0.000   0.002
    8        0.004  -0.002   0.000   0.002
    9        0.005  -0.002   0.000   0.002
   10        0.004  -0.002   0.000   0.002
   11       -0.004   0.002   0.000  -0.002
   12       -0.004   0.002   0.000  -0.002
   13       -0.004   0.002   0.000  -0.002
   14       -0.004   0.002   0.000  -0.002
   15        0.004  -0.002   0.000   0.002
   16        0.004  -0.002   0.000   0.002
   17        0.004  -0.002   0.000   0.002
   18        0.004  -0.002   0.000   0.002
   19        0.007   0.127   0.000   0.134
   20        0.008   0.128   0.000   0.136
   21        0.007   0.127   0.000   0.134
   22        0.008   0.128   0.000   0.136
   23       -0.007  -0.127   0.000  -0.134
   24       -0.008  -0.128   0.000  -0.136
   25       -0.007  -0.127   0.000  -0.134
   26       -0.008  -0.128   0.000  -0.136
   27       -0.003  -0.020   0.000  -0.023
   28       -0.002  -0.016   0.000  -0.018
   29       -0.003  -0.020   0.000  -0.023
   30       -0.002  -0.016   0.000  -0.018
   31        0.003   0.020   0.000   0.023
   32        0.002   0.016   0.000   0.018
   33        0.003   0.020   0.000   0.023
   34        0.002   0.016   0.000   0.018
   35       -0.002  -0.015   0.000  -0.017
   36       -0.002  -0.019   0.000  -0.021
   37       -0.002  -0.015   0.000  -0.017
   38       -0.002  -0.019   0.000  -0.021
   39        0.002   0.015   0.000   0.017
   40        0.002   0.019   0.000   0.021
   41        0.002   0.015   0.000   0.017
   42        0.002   0.019   0.000   0.021
   43        0.006   0.112   0.000   0.118
   44        0.008   0.120   0.000   0.128
   45        0.006   0.112   0.000   0.118
   46        0.008   0.120   0.000   0.128
   47       -0.006  -0.112   0.000  -0.118
   48       -0.008  -0.120   0.000  -0.128
   49       -0.006  -0.112   0.000  -0.118
   50       -0.008  -0.120   0.000  -0.128
   51       -0.009  -0.068   0.000  -0.077
   52        0.005   0.001   0.000   0.006
   53       -0.009  -0.068   0.000  -0.077
   54        0.005   0.001   0.000   0.006
   55        0.009   0.068   0.000   0.077
   56       -0.005  -0.001   0.000  -0.006
   57        0.009   0.068   0.000   0.077
   58       -0.005  -0.001   0.000  -0.006
   59        0.003   0.075   0.000   0.078
   60        0.003   0.077   0.000   0.080
   61        0.003   0.075   0.000   0.078
   62        0.003   0.077   0.000   0.080
   63       -0.003  -0.075   0.000  -0.078
   64       -0.003  -0.077   0.000  -0.080
   65       -0.003  -0.075   0.000  -0.078
   66       -0.003  -0.077   0.000  -0.080
--------------------------------------------------
tot          0.000   0.000   0.000   0.000
 

 total amount of memory used by VASP MPI-rank0   349207. kBytes
=======================================================================

   base      :      30000. kBytes
   nonlr-proj:       2085. kBytes
   fftplans  :       3916. kBytes
   grid      :      10368. kBytes
   one-center:         93. kBytes
   wavefun   :     302745. kBytes
 
  
  
 General timing and accounting informations for this job:
 ========================================================
  
                  Total CPU time used (sec):      914.503
                            User time (sec):      904.438
                          System time (sec):       10.065
                         Elapsed time (sec):      918.438
  
                   Maximum memory used (kb):      612952.
                   Average memory used (kb):          N/A
  
                          Minor page faults:       113117
                          Major page faults:           22
                 Voluntary context switches:        82202
