 vasp.6.3.2 27Jun22 (build Aug 02 2025 14:55:03) complex                        
  
 executed on             LinuxIFC date 2025.11.08  17:46:22
 running on   48 total cores
 distrk:  each k-point on   48 cores,    1 groups
 distr:  one band on NCORE=  12 cores,    4 groups


--------------------------------------------------------------------------------------------------------


 INCAR:
   PREC = Normal
   ENCUT = 500
   IBRION = -1
   ISPIN = 2
   MAGMOM = 5 -5 4*1 4*-1 4*1 4*-1 4*1 4*-1 4*1 4*-1 4*1 4*-1 4*1 4*-1 4*1 4*-1 4*1 4*-1 4*1 4*-1 4*1 4*-1 4*1 4*-1 4*1 4*-1 4*1 4*-1 4*1 4*-1 4*1 4*-1 4*1 4*-1 4*1 4*-1 4*1 4*-1 4*1 4*-1 4*1 4*-1 4*1 4*-1 4*1 4*-1 4*1 4*-1 4*1 4*-1 4*1 4*-1 4*1 4*-1 4*1 4*-1 4*1 4*-1 4*1 4*-1 4*1 4*-1 4*1 4*-1 4*1 4*-1 4*1 4*-1 4*1 4*-1 4*1 4*-1 4*1 4*-1 4*1 4*-1 4*1 4*-1 4*1 4*-1
   NSW = 0
   NELM = 200
   ISIF = 2
   EDIFF = 1E-5
   EDIFFG = -0.01
   ALGO = Fast
   ISTART = 1
   ICHARG = 11
   LREAL = Auto
   LWAVE = .F.
   LCHARG = .F.
   LVTOT = .T.
   NPAR = 4
   AMIX = 0.2
   BMIX = 0.0001
   AMIX_MAG = 0.8
   BMIX_MAG = 0.0001
   LDAU = .TRUE.
   LDAUTYPE = 2
   LDAUL = 2 -1 -1 -1 -1 -1
   LDAUU = 3.0 0 0 0 0 0
   LDAUJ = 1.0 0 0 0 0 0
   LMAXMIX = 4
   LORBIT = 11

 POTCAR:    PAW_PBE Cr_pv 02Aug2007               
 POTCAR:    PAW_PBE H 15Jun2001                   
 POTCAR:    PAW_PBE C 08Apr2002                   
 POTCAR:    PAW_PBE S 06Sep2000                   
 POTCAR:    PAW_PBE N 08Apr2002                   
 POTCAR:    PAW_PBE O 08Apr2002                   
 WARNING: For LVTOT=.TRUE., VASP.5.x writes the TOTAL local potential to the
     file LOCPOT. If you want only the Hartree contributions, use LVHAR=.TRUE.
     instead. 

 POTCAR:    PAW_PBE Cr_pv 02Aug2007               
   SHA256 =  c9a7df34d3cdbacf1090e328ef39c0b420964e11c23f63548d1ac9dd218cdba0 Cr_pv/POTCAR          
   COPYR  = (c) Copyright 02Aug2007 Georg Kresse                                                    
   COPYR  = This file is part of the software VASP. Any use, copying, and all other rights are regul
   COPYR  = If you do not have a valid VASP license, you may not use, copy or distribute this file. 
   VRHFIN =Cr : p6d5s1                                                                              
   LEXCH  = PE                                                                                      
   EATOM  =  1647.9177 eV,  121.1185 Ry                                                             
                                                                                                    
   TITEL  = PAW_PBE Cr_pv 02Aug2007                                                                 
   LULTRA =        F    use ultrasoft PP ?                                                          
   IUNSCR =        1    unscreen: 0-lin 1-nonlin 2-no                                               
   RPACOR =    2.080    partial core radius                                                         
   POMASS =   51.996; ZVAL   =   12.000    mass and valenz                                          
   RCORE  =    2.300    outmost cutoff radius                                                       
   RWIGS  =    2.500; RWIGS  =    1.323    wigner-seitz radius (au A)                               
   ENMAX  =  265.681; ENMIN  =  199.261 eV                                                          
   ICORE  =        3    local potential                                                             
   LCOR   =        T    correct aug charges                                                         
   LPAW   =        T    paw PP                                                                      
   EAUG   =  519.424                                                                                
   DEXC   =    0.000                                                                                
   RMAX   =    2.356    core radius for proj-oper                                                   
   RAUG   =    1.300    factor for augmentation sphere                                              
   RDEP   =    2.447    radius for radial grids                                                     
   RDEPT  =    1.882    core radius for aug-charge                                                  
                                                                                                    
   Atomic configuration                                                                             
    8 entries                                                                                       
     n  l   j            E        occ.                                                              
     1  0  0.50     -5880.4963   2.0000                                                             
     2  0  0.50      -667.0865   2.0000                                                             
     2  1  1.50      -560.6250   6.0000                                                             
     3  0  0.50       -73.9860   2.0000                                                             
     3  1  1.50       -45.4378   6.0000                                                             
     3  2  2.50        -2.9137   5.0000                                                             
     4  0  0.50        -4.0071   1.0000                                                             
     4  3  2.50        -1.3606   0.0000                                                             
   Description                                                                                      
     l       E           TYP  RCUT    TYP  RCUT                                                     
     1    -45.4377911     23  2.000                                                                 
     1      1.3605826     23  2.000                                                                 
     2     -2.9136672     23  2.300                                                                 
     2     -4.2742498     23  2.300                                                                 
     0     -4.0071320     23  2.300                                                                 
     0      9.4498803     23  2.300                                                                 
     3      2.7211652     23  2.300                                                                 
  local pseudopotential read in
  partial core-charges read in
  partial kinetic energy density read in
  atomic valenz-charges read in
  non local Contribution for L=           1  read in
    real space projection operators read in
  non local Contribution for L=           1  read in
    real space projection operators read in
  non local Contribution for L=           2  read in
    real space projection operators read in
  non local Contribution for L=           2  read in
    real space projection operators read in
  non local Contribution for L=           0  read in
    real space projection operators read in
  non local Contribution for L=           0  read in
    real space projection operators read in
    PAW grid and wavefunctions read in
 
   number of l-projection  operators is LMAX  =           6
   number of lm-projection operators is LMMAX =          18
 
 POTCAR:    PAW_PBE H 15Jun2001                   
   SHA256 =  030f79b5d3ab3cf0e668861823c8fb652ff669f3e15e46930bd03bfd63a607b6 H/POTCAR              
   COPYR  = (c) Copyright 15Jun2001 Georg Kresse                                                    
   COPYR  = This file is part of the software VASP. Any use, copying, and all other rights are regul
   COPYR  = If you do not have a valid VASP license, you may not use, copy or distribute this file. 
   VRHFIN =H: ultrasoft test                                                                        
   LEXCH  = PE                                                                                      
   EATOM  =    12.4884 eV,    0.9179 Ry                                                             
                                                                                                    
   TITEL  = PAW_PBE H 15Jun2001                                                                     
   LULTRA =        F    use ultrasoft PP ?                                                          
   IUNSCR =        0    unscreen: 0-lin 1-nonlin 2-no                                               
   RPACOR =    0.000    partial core radius                                                         
   POMASS =    1.000; ZVAL   =    1.000    mass and valenz                                          
   RCORE  =    1.100    outmost cutoff radius                                                       
   RWIGS  =    0.700; RWIGS  =    0.370    wigner-seitz radius (au A)                               
   ENMAX  =  250.000; ENMIN  =  200.000 eV                                                          
   RCLOC  =    0.701    cutoff for local pot                                                        
   LCOR   =        T    correct aug charges                                                         
   LPAW   =        T    paw PP                                                                      
   EAUG   =  400.000                                                                                
   RMAX   =    1.123    core radius for proj-oper                                                   
   RAUG   =    1.200    factor for augmentation sphere                                              
   RDEP   =    1.112    radius for radial grids                                                     
   RDEPT  =    0.926    core radius for aug-charge                                                  
                                                                                                    
   Atomic configuration                                                                             
    2 entries                                                                                       
     n  l   j            E        occ.                                                              
     1  0  0.50        -6.4927   1.0000                                                             
     2  1  0.50        -3.4015   0.0000                                                             
   Description                                                                                      
     l       E           TYP  RCUT    TYP  RCUT                                                     
     0     -6.4927494     23  1.100                                                                 
     0      6.8029130     23  1.100                                                                 
     1     -4.0817478     23  1.100                                                                 
  local pseudopotential read in
  atomic valenz-charges read in
  non local Contribution for L=           0  read in
    real space projection operators read in
  non local Contribution for L=           0  read in
    real space projection operators read in
  non local Contribution for L=           1  read in
    real space projection operators read in
    PAW grid and wavefunctions read in
 
   number of l-projection  operators is LMAX  =           3
   number of lm-projection operators is LMMAX =           5
 
 POTCAR:    PAW_PBE C 08Apr2002                   
   SHA256 =  253f7b50bb8d59471dbedb8285d89021f4a42ed1a2c5d38a03a736e69125dd95 C/POTCAR              
   COPYR  = (c) Copyright 08Apr2002 Georg Kresse                                                    
   COPYR  = This file is part of the software VASP. Any use, copying, and all other rights are regul
   COPYR  = If you do not have a valid VASP license, you may not use, copy or distribute this file. 
   VRHFIN =C: s2p2                                                                                  
   LEXCH  = PE                                                                                      
   EATOM  =   147.1560 eV,   10.8157 Ry                                                             
                                                                                                    
   TITEL  = PAW_PBE C 08Apr2002                                                                     
   LULTRA =        F    use ultrasoft PP ?                                                          
   IUNSCR =        1    unscreen: 0-lin 1-nonlin 2-no                                               
   RPACOR =    1.200    partial core radius                                                         
   POMASS =   12.011; ZVAL   =    4.000    mass and valenz                                          
   RCORE  =    1.500    outmost cutoff radius                                                       
   RWIGS  =    1.630; RWIGS  =    0.863    wigner-seitz radius (au A)                               
   ENMAX  =  400.000; ENMIN  =  300.000 eV                                                          
   ICORE  =        2    local potential                                                             
   LCOR   =        T    correct aug charges                                                         
   LPAW   =        T    paw PP                                                                      
   EAUG   =  644.873                                                                                
   DEXC   =    0.000                                                                                
   RMAX   =    1.529    core radius for proj-oper                                                   
   RAUG   =    1.300    factor for augmentation sphere                                              
   RDEP   =    1.501    radius for radial grids                                                     
   RDEPT  =    1.300    core radius for aug-charge                                                  
                                                                                                    
   Atomic configuration                                                                             
    4 entries                                                                                       
     n  l   j            E        occ.                                                              
     1  0  0.50      -273.3789   2.0000                                                             
     2  0  0.50       -13.7508   2.0000                                                             
     2  1  0.50        -5.2854   2.0000                                                             
     3  2  1.50        -5.4423   0.0000                                                             
   Description                                                                                      
     l       E           TYP  RCUT    TYP  RCUT                                                     
     0    -13.7508458     23  1.200                                                                 
     0     -8.2022199     23  1.200                                                                 
     1     -5.2854383     23  1.500                                                                 
     1     34.0145650     23  1.500                                                                 
     2     -5.4423304      7  1.500                                                                 
  local pseudopotential read in
  partial core-charges read in
  partial kinetic energy density read in
  atomic valenz-charges read in
  non local Contribution for L=           0  read in
    real space projection operators read in
  non local Contribution for L=           0  read in
    real space projection operators read in
  non local Contribution for L=           1  read in
    real space projection operators read in
  non local Contribution for L=           1  read in
    real space projection operators read in
    PAW grid and wavefunctions read in
 
   number of l-projection  operators is LMAX  =           4
   number of lm-projection operators is LMMAX =           8
 
 POTCAR:    PAW_PBE S 06Sep2000                   
   SHA256 =  0fc7481fb0695f01bdc6462160264c5c84044ae9ec85a907d398b887a2bc3132 S/POTCAR              
   COPYR  = (c) Copyright 06Sep2000 Georg Kresse                                                    
   COPYR  = This file is part of the software VASP. Any use, copying, and all other rights are regul
   COPYR  = If you do not have a valid VASP license, you may not use, copy or distribute this file. 
   VRHFIN =S : s2p4                                                                                 
   LEXCH  = PE                                                                                      
   EATOM  =   276.8230 eV,   20.3459 Ry                                                             
                                                                                                    
   TITEL  = PAW_PBE S 06Sep2000                                                                     
   LULTRA =        F    use ultrasoft PP ?                                                          
   IUNSCR =        1    unscreen: 0-lin 1-nonlin 2-no                                               
   RPACOR =    1.500    partial core radius                                                         
   POMASS =   32.066; ZVAL   =    6.000    mass and valenz                                          
   RCORE  =    1.900    outmost cutoff radius                                                       
   RWIGS  =    2.200; RWIGS  =    1.164    wigner-seitz radius (au A)                               
   ENMAX  =  258.689; ENMIN  =  194.016 eV                                                          
   ICORE  =        2    local potential                                                             
   LCOR   =        T    correct aug charges                                                         
   LPAW   =        T    paw PP                                                                      
   EAUG   =  335.092                                                                                
   DEXC   =    0.000                                                                                
   RMAX   =    1.942    core radius for proj-oper                                                   
   RAUG   =    1.300    factor for augmentation sphere                                              
   RDEP   =    1.954    radius for radial grids                                                     
   RDEPT  =    1.744    core radius for aug-charge                                                  
                                                                                                    
   Atomic configuration                                                                             
    6 entries                                                                                       
     n  l   j            E        occ.                                                              
     1  0  0.50     -2405.8406   2.0000                                                             
     2  0  0.50      -211.7007   2.0000                                                             
     2  1  1.50      -156.4958   6.0000                                                             
     3  0  0.50       -17.2562   2.0000                                                             
     3  1  0.50        -7.0085   4.0000                                                             
     3  2  1.50        -6.8029   0.0000                                                             
   Description                                                                                      
     l       E           TYP  RCUT    TYP  RCUT                                                     
     0    -17.2561641     23  1.900                                                                 
     0    -15.8743224     23  1.900                                                                 
     1     -7.0085400     23  1.900                                                                 
     1     -2.7779785     23  1.900                                                                 
     2     -6.8029130     23  1.900                                                                 
  local pseudopotential read in
  partial core-charges read in
  partial kinetic energy density read in
  atomic valenz-charges read in
  non local Contribution for L=           0  read in
    real space projection operators read in
  non local Contribution for L=           0  read in
    real space projection operators read in
  non local Contribution for L=           1  read in
    real space projection operators read in
  non local Contribution for L=           1  read in
    real space projection operators read in
    PAW grid and wavefunctions read in
 
   number of l-projection  operators is LMAX  =           4
   number of lm-projection operators is LMMAX =           8
 
 POTCAR:    PAW_PBE N 08Apr2002                   
   SHA256 =  e053789ff3a61a86a1b75d8a110fcc91f86041011e7b0817c7c99e4e8a6349d7 N/POTCAR              
   COPYR  = (c) Copyright 08Apr2002 Georg Kresse                                                    
   COPYR  = This file is part of the software VASP. Any use, copying, and all other rights are regul
   COPYR  = If you do not have a valid VASP license, you may not use, copy or distribute this file. 
   VRHFIN =N: s2p3                                                                                  
   LEXCH  = PE                                                                                      
   EATOM  =   264.5486 eV,   19.4438 Ry                                                             
                                                                                                    
   TITEL  = PAW_PBE N 08Apr2002                                                                     
   LULTRA =        F    use ultrasoft PP ?                                                          
   IUNSCR =        1    unscreen: 0-lin 1-nonlin 2-no                                               
   RPACOR =    1.200    partial core radius                                                         
   POMASS =   14.001; ZVAL   =    5.000    mass and valenz                                          
   RCORE  =    1.500    outmost cutoff radius                                                       
   RWIGS  =    1.400; RWIGS  =    0.741    wigner-seitz radius (au A)                               
   ENMAX  =  400.000; ENMIN  =  300.000 eV                                                          
   ICORE  =        2    local potential                                                             
   LCOR   =        T    correct aug charges                                                         
   LPAW   =        T    paw PP                                                                      
   EAUG   =  627.112                                                                                
   DEXC   =    0.000                                                                                
   RMAX   =    1.529    core radius for proj-oper                                                   
   RAUG   =    1.300    factor for augmentation sphere                                              
   RDEP   =    1.514    radius for radial grids                                                     
   RDEPT  =    1.338    core radius for aug-charge                                                  
                                                                                                    
   Atomic configuration                                                                             
    4 entries                                                                                       
     n  l   j            E        occ.                                                              
     1  0  0.50      -384.7179   2.0000                                                             
     2  0  0.50       -18.5828   2.0000                                                             
     2  1  0.50        -7.0898   3.0000                                                             
     3  2  1.50        -6.8029   0.0000                                                             
   Description                                                                                      
     l       E           TYP  RCUT    TYP  RCUT                                                     
     0    -18.5828119     23  1.200                                                                 
     0    -13.5018863     23  1.200                                                                 
     1     -7.0897853     23  1.500                                                                 
     1      9.5240782     23  1.500                                                                 
     2     -6.8029130      7  1.500                                                                 
  local pseudopotential read in
  partial core-charges read in
  partial kinetic energy density read in
  atomic valenz-charges read in
  non local Contribution for L=           0  read in
    real space projection operators read in
  non local Contribution for L=           0  read in
    real space projection operators read in
  non local Contribution for L=           1  read in
    real space projection operators read in
  non local Contribution for L=           1  read in
    real space projection operators read in
    PAW grid and wavefunctions read in
 
   number of l-projection  operators is LMAX  =           4
   number of lm-projection operators is LMMAX =           8
 
 POTCAR:    PAW_PBE O 08Apr2002                   
   SHA256 =  818f92134a0a090dccd8ba1447fa70422a3b330e708bb4f08108d8ae51209ddf O/POTCAR              
   COPYR  = (c) Copyright 08Apr2002 Georg Kresse                                                    
   COPYR  = This file is part of the software VASP. Any use, copying, and all other rights are regul
   COPYR  = If you do not have a valid VASP license, you may not use, copy or distribute this file. 
   VRHFIN =O: s2p4                                                                                  
   LEXCH  = PE                                                                                      
   EATOM  =   432.3788 eV,   31.7789 Ry                                                             
                                                                                                    
   TITEL  = PAW_PBE O 08Apr2002                                                                     
   LULTRA =        F    use ultrasoft PP ?                                                          
   IUNSCR =        1    unscreen: 0-lin 1-nonlin 2-no                                               
   RPACOR =    1.200    partial core radius                                                         
   POMASS =   16.000; ZVAL   =    6.000    mass and valenz                                          
   RCORE  =    1.520    outmost cutoff radius                                                       
   RWIGS  =    1.550; RWIGS  =    0.820    wigner-seitz radius (au A)                               
   ENMAX  =  400.000; ENMIN  =  300.000 eV                                                          
   ICORE  =        2    local potential                                                             
   LCOR   =        T    correct aug charges                                                         
   LPAW   =        T    paw PP                                                                      
   EAUG   =  605.392                                                                                
   DEXC   =    0.000                                                                                
   RMAX   =    1.553    core radius for proj-oper                                                   
   RAUG   =    1.300    factor for augmentation sphere                                              
   RDEP   =    1.550    radius for radial grids                                                     
   RDEPT  =    1.329    core radius for aug-charge                                                  
                                                                                                    
   Atomic configuration                                                                             
    4 entries                                                                                       
     n  l   j            E        occ.                                                              
     1  0  0.50      -514.6923   2.0000                                                             
     2  0  0.50       -23.9615   2.0000                                                             
     2  1  0.50        -9.0305   4.0000                                                             
     3  2  1.50        -9.5241   0.0000                                                             
   Description                                                                                      
     l       E           TYP  RCUT    TYP  RCUT                                                     
     0    -23.9615318     23  1.200                                                                 
     0     -9.5240782     23  1.200                                                                 
     1     -9.0304911     23  1.520                                                                 
     1      8.1634956     23  1.520                                                                 
     2     -9.5240782      7  1.500                                                                 
  local pseudopotential read in
  partial core-charges read in
  partial kinetic energy density read in
  kinetic energy density of atom read in
  atomic valenz-charges read in
  non local Contribution for L=           0  read in
    real space projection operators read in
  non local Contribution for L=           0  read in
    real space projection operators read in
  non local Contribution for L=           1  read in
    real space projection operators read in
  non local Contribution for L=           1  read in
    real space projection operators read in
    PAW grid and wavefunctions read in
 
   number of l-projection  operators is LMAX  =           4
   number of lm-projection operators is LMMAX =           8
 
 Optimization of the real space projectors (new method)

 maximal supplied QI-value         = 16.25
 optimisation between [QCUT,QGAM] = [ 11.38, 22.75] = [ 36.24,144.96] Ry 
 Optimized for a Real-space Cutoff    1.31 Angstroem

   l    n(q)    QCUT    max X(q) W(low)/X(q) W(high)/X(q)  e(spline) 
   1      8    11.376     3.262    0.15E-03    0.36E-03    0.86E-07
   1      8    11.376     5.741    0.39E-03    0.84E-03    0.21E-06
   2      8    11.376    60.438    0.39E-03    0.55E-03    0.20E-06
   2      8    11.376    55.380    0.40E-03    0.57E-03    0.20E-06
   0      9    11.376    80.273    0.17E-03    0.16E-03    0.48E-07
   0      9    11.376    36.654    0.15E-03    0.14E-03    0.43E-07
 Optimization of the real space projectors (new method)

 maximal supplied QI-value         = 34.20
 optimisation between [QCUT,QGAM] = [ 11.29, 22.57] = [ 35.68,142.71] Ry 
 Optimized for a Real-space Cutoff    1.16 Angstroem

   l    n(q)    QCUT    max X(q) W(low)/X(q) W(high)/X(q)  e(spline) 
   0      8    11.287    19.460    0.40E-03    0.73E-03    0.16E-06
   0      8    11.287    12.209    0.38E-03    0.70E-03    0.15E-06
   1      7    11.287     4.655    0.22E-03    0.25E-04    0.22E-06
 Optimization of the real space projectors (new method)

 maximal supplied QI-value         = 25.13
 optimisation between [QCUT,QGAM] = [ 11.31, 22.87] = [ 35.82,146.48] Ry 
 Optimized for a Real-space Cutoff    1.00 Angstroem

   l    n(q)    QCUT    max X(q) W(low)/X(q) W(high)/X(q)  e(spline) 
   0      7    11.310   115.676    0.43E-03    0.13E-02    0.19E-06
   0      7    11.310    87.132    0.43E-03    0.13E-02    0.18E-06
   1      6    11.310     4.429    0.42E-03    0.74E-03    0.11E-06
   1      6    11.310     2.733    0.34E-03    0.55E-03    0.92E-07
 Optimization of the real space projectors (new method)

 maximal supplied QI-value         = 19.84
 optimisation between [QCUT,QGAM] = [ 11.31, 22.82] = [ 35.82,145.81] Ry 
 Optimized for a Real-space Cutoff    1.16 Angstroem

   l    n(q)    QCUT    max X(q) W(low)/X(q) W(high)/X(q)  e(spline) 
   0      8    11.310   187.594    0.35E-03    0.37E-03    0.44E-07
   0      8    11.310   164.243    0.34E-03    0.37E-03    0.44E-07
   1      7    11.310    67.533    0.33E-03    0.37E-03    0.88E-07
   1      7    11.310    50.729    0.32E-03    0.36E-03    0.86E-07
 Optimization of the real space projectors (new method)

 maximal supplied QI-value         = 25.13
 optimisation between [QCUT,QGAM] = [ 11.31, 22.87] = [ 35.82,146.48] Ry 
 Optimized for a Real-space Cutoff    1.27 Angstroem

   l    n(q)    QCUT    max X(q) W(low)/X(q) W(high)/X(q)  e(spline) 
   0      9    11.310    79.467    0.75E-04    0.16E-03    0.36E-06
   0      9    11.310    66.151    0.74E-04    0.16E-03    0.36E-06
   1      8    11.310    17.416    0.35E-03    0.12E-03    0.95E-06
   1      8    11.310    12.382    0.37E-03    0.13E-03    0.98E-06
 Optimization of the real space projectors (new method)

 maximal supplied QI-value         = 24.76
 optimisation between [QCUT,QGAM] = [ 11.39, 22.77] = [ 36.31,145.25] Ry 
 Optimized for a Real-space Cutoff    1.00 Angstroem

   l    n(q)    QCUT    max X(q) W(low)/X(q) W(high)/X(q)  e(spline) 
   0      7    11.387    20.381    0.39E-03    0.13E-02    0.15E-06
   0      7    11.387    15.268    0.42E-03    0.14E-02    0.17E-06
   1      6    11.387     5.964    0.41E-03    0.11E-02    0.17E-06
   1      6    11.387     5.382    0.39E-03    0.87E-03    0.15E-06
  PAW_PBE Cr_pv 02Aug2007               :
 energy of atom  1       EATOM=-1647.9177
 kinetic energy error for atom=    0.0061 (will be added to EATOM!!)
  PAW_PBE H 15Jun2001                   :
 energy of atom  2       EATOM=  -12.4884
 kinetic energy error for atom=    0.0020 (will be added to EATOM!!)
  PAW_PBE C 08Apr2002                   :
 energy of atom  3       EATOM= -147.1560
 kinetic energy error for atom=    0.0076 (will be added to EATOM!!)
  PAW_PBE S 06Sep2000                   :
 energy of atom  4       EATOM= -276.8230
 kinetic energy error for atom=    0.0020 (will be added to EATOM!!)
  PAW_PBE N 08Apr2002                   :
 energy of atom  5       EATOM= -264.5486
 kinetic energy error for atom=    0.0138 (will be added to EATOM!!)
  PAW_PBE O 08Apr2002                   :
 energy of atom  6       EATOM= -432.3788
 kinetic energy error for atom=    0.0224 (will be added to EATOM!!)
 
 
 POSCAR: Cr2 H16 C48 S8 N16 O24
  positions in direct lattice
  No initial velocities read in
 exchange correlation table for  LEXCH =        8
   RHO(1)=    0.500       N(1)  =     2000
   RHO(2)=  100.500       N(2)  =     4000
 


--------------------------------------------------------------------------------------------------------


 ion  position               nearest neighbor table
   1  0.000  0.000  0.492-  72 2.30  74 2.30  67 2.30  69 2.30
   2  0.500  0.500  0.492-  71 2.30  73 2.30  68 2.30  70 2.30
   3  0.626  0.565  0.489-  75 1.03
   4  0.126  0.065  0.489-  76 1.03
   5  0.374  0.435  0.489-  77 1.03
   6  0.874  0.935  0.489-  78 1.03
   7  0.935  0.126  0.489-  79 1.03
   8  0.435  0.626  0.489-  80 1.03
   9  0.065  0.874  0.489-  81 1.03
  10  0.565  0.374  0.489-  82 1.03
  11  0.033  0.200  0.509-  83 1.02
  12  0.533  0.700  0.509-  84 1.02
  13  0.967  0.800  0.509-  85 1.02
  14  0.467  0.300  0.509-  86 1.02
  15  0.300  0.533  0.509-  87 1.02
  16  0.800  0.033  0.509-  88 1.02
  17  0.700  0.467  0.509-  89 1.02
  18  0.200  0.967  0.509-  90 1.02
  19  0.073  0.128  0.496-  76 1.33  83 1.34  67 1.73
  20  0.573  0.628  0.496-  75 1.33  84 1.34  68 1.73
  21  0.427  0.372  0.496-  77 1.33  86 1.34  70 1.73
  22  0.927  0.872  0.496-  78 1.33  85 1.34  69 1.73
  23  0.872  0.073  0.496-  79 1.33  88 1.34  72 1.73
  24  0.372  0.573  0.496-  80 1.33  87 1.34  71 1.73
  25  0.628  0.427  0.496-  82 1.33  89 1.34  73 1.73
  26  0.128  0.927  0.496-  81 1.33  90 1.34  74 1.73
  27  0.673  0.634  0.495-  99 1.23  75 1.43  36 1.46
  28  0.173  0.134  0.495- 100 1.23  76 1.43  35 1.46
  29  0.327  0.366  0.495- 101 1.23  77 1.43  37 1.46
  30  0.827  0.866  0.495- 102 1.23  78 1.43  38 1.46
  31  0.866  0.173  0.495- 103 1.23  79 1.43  39 1.46
  32  0.366  0.673  0.495- 104 1.23  80 1.43  40 1.46
  33  0.134  0.827  0.495- 105 1.23  81 1.43  42 1.46
  34  0.634  0.327  0.495- 106 1.23  82 1.43  41 1.46
  35  0.169  0.193  0.502-  51 1.39  28 1.46  43 1.47
  36  0.669  0.693  0.502-  52 1.39  27 1.46  44 1.47
  37  0.331  0.307  0.502-  53 1.39  29 1.46  46 1.47
  38  0.831  0.807  0.502-  54 1.39  30 1.46  45 1.47
  39  0.807  0.169  0.502-  55 1.39  31 1.46  48 1.47
  40  0.307  0.669  0.502-  56 1.39  32 1.46  47 1.47
  41  0.693  0.331  0.502-  57 1.39  34 1.46  49 1.47
  42  0.193  0.831  0.502-  58 1.39  33 1.46  50 1.47
  43  0.116  0.218  0.515-  91 1.22  83 1.44  35 1.47
  44  0.616  0.718  0.515-  92 1.22  84 1.44  36 1.47
  45  0.884  0.782  0.515-  93 1.22  85 1.44  38 1.47
  46  0.384  0.282  0.515-  94 1.22  86 1.44  37 1.47
  47  0.282  0.616  0.515-  95 1.22  87 1.44  40 1.47
  48  0.782  0.116  0.515-  96 1.22  88 1.44  39 1.47
  49  0.718  0.384  0.515-  97 1.22  89 1.44  41 1.47
  50  0.218  0.884  0.515-  98 1.22  90 1.44  42 1.47
  51  0.215  0.225  0.499-  35 1.39  59 1.50  62 1.50
  52  0.715  0.725  0.499-  36 1.39  60 1.50  61 1.50
  53  0.285  0.275  0.499-  37 1.39  62 1.50  59 1.50
  54  0.785  0.775  0.499-  38 1.39  61 1.50  60 1.50
  55  0.775  0.215  0.499-  39 1.39  64 1.50  65 1.50
  56  0.275  0.715  0.499-  40 1.39  63 1.50  66 1.50
  57  0.725  0.285  0.499-  41 1.39  65 1.50  64 1.50
  58  0.225  0.785  0.499-  42 1.39  66 1.50  63 1.50
  59  0.225  0.285  0.495- 107 1.22  51 1.50  53 1.50
  60  0.725  0.785  0.495- 108 1.22  52 1.50  54 1.50
  61  0.775  0.715  0.495- 109 1.22  54 1.50  52 1.50
  62  0.275  0.215  0.495- 110 1.22  53 1.50  51 1.50
  63  0.215  0.725  0.495- 111 1.22  56 1.50  58 1.50
  64  0.715  0.225  0.495- 112 1.22  55 1.50  57 1.50
  65  0.785  0.275  0.495- 113 1.22  57 1.50  55 1.50
  66  0.285  0.775  0.495- 114 1.22  58 1.50  56 1.50
  67  0.014  0.092  0.493-  19 1.73   1 2.30
  68  0.514  0.592  0.493-  20 1.73   2 2.30
  69  0.986  0.908  0.493-  22 1.73   1 2.30
  70  0.486  0.408  0.493-  21 1.73   2 2.30
  71  0.408  0.514  0.493-  24 1.73   2 2.30
  72  0.908  0.014  0.493-  23 1.73   1 2.30
  73  0.592  0.486  0.493-  25 1.73   2 2.30
  74  0.092  0.986  0.493-  26 1.73   1 2.30
  75  0.622  0.606  0.493-   3 1.03  20 1.33  27 1.43
  76  0.122  0.106  0.493-   4 1.03  19 1.33  28 1.43
  77  0.378  0.394  0.493-   5 1.03  21 1.33  29 1.43
  78  0.878  0.894  0.493-   6 1.03  22 1.33  30 1.43
  79  0.894  0.122  0.493-   7 1.03  23 1.33  31 1.43
  80  0.394  0.622  0.493-   8 1.03  24 1.33  32 1.43
  81  0.106  0.878  0.493-   9 1.03  26 1.33  33 1.43
  82  0.606  0.378  0.493-  10 1.03  25 1.33  34 1.43
  83  0.070  0.182  0.504-  11 1.02  19 1.34  43 1.44
  84  0.570  0.682  0.504-  12 1.02  20 1.34  44 1.44
  85  0.930  0.818  0.504-  13 1.02  22 1.34  45 1.44
  86  0.430  0.318  0.504-  14 1.02  21 1.34  46 1.44
  87  0.318  0.570  0.504-  15 1.02  24 1.34  47 1.44
  88  0.818  0.070  0.504-  16 1.02  23 1.34  48 1.44
  89  0.682  0.430  0.504-  17 1.02  25 1.34  49 1.44
  90  0.182  0.930  0.504-  18 1.02  26 1.34  50 1.44
  91  0.106  0.265  0.534-  43 1.22
  92  0.606  0.765  0.534-  44 1.22
  93  0.894  0.735  0.534-  45 1.22
  94  0.394  0.235  0.534-  46 1.22
  95  0.235  0.606  0.534-  47 1.22
  96  0.735  0.106  0.534-  48 1.22
  97  0.765  0.394  0.534-  49 1.22
  98  0.265  0.894  0.534-  50 1.22
  99  0.714  0.606  0.491-  27 1.23
 100  0.214  0.106  0.491-  28 1.23
 101  0.286  0.394  0.491-  29 1.23
 102  0.786  0.894  0.491-  30 1.23
 103  0.894  0.214  0.491-  31 1.23
 104  0.394  0.714  0.491-  32 1.23
 105  0.106  0.786  0.491-  33 1.23
 106  0.606  0.286  0.491-  34 1.23
 107  0.197  0.324  0.486-  59 1.22
 108  0.697  0.824  0.486-  60 1.22
 109  0.803  0.676  0.486-  61 1.22
 110  0.303  0.176  0.486-  62 1.22
 111  0.176  0.697  0.486-  63 1.22
 112  0.676  0.197  0.486-  64 1.22
 113  0.824  0.303  0.486-  65 1.22
 114  0.324  0.803  0.486-  66 1.22
 
  LATTYP: Found a simple tetragonal cell.
 ALAT       =    24.7566271874
 C/A-ratio  =     0.5791230082
  
  Lattice vectors:
  
 A1 = (  17.5055789078, -17.5055790192,   0.0000000000)
 A2 = (  17.5055790192,  17.5055789078,   0.0000000000)
 A3 = (  -0.0000000000,  -0.0000000000,  14.3371324102)


Analysis of symmetry for initial positions (statically):
=====================================================================
 Subroutine PRICEL returns following result:
 
  LATTYP: Found a simple tetragonal cell.
 ALAT       =    17.5055789635
 C/A-ratio  =     0.8190036125
  
  Lattice vectors:
  
 A1 = (  -0.0000000557, -17.5055789635,   0.0000000000)
 A2 = (  17.5055789635,  -0.0000000557,   0.0000000000)
 A3 = (   0.0000000000,   0.0000000000,  14.3371324102)
 
   2 primitive cells build up your supercell.
 

 Routine SETGRP: Setting up the symmetry group for a 
 simple tetragonal supercell.


 Subroutine GETGRP returns: Found  4 space group operations
 (whereof  4 operations were pure point group operations)
 out of a pool of 16 trial point group operations.


The static configuration has the point symmetry     .


Analysis of symmetry for dynamics (positions and initial velocities):
=====================================================================
 Subroutine PRICEL returns following result:
 
  LATTYP: Found a simple tetragonal cell.
 ALAT       =    17.5055789635
 C/A-ratio  =     0.8190036125
  
  Lattice vectors:
  
 A1 = (  -0.0000000557, -17.5055789635,   0.0000000000)
 A2 = (  17.5055789635,  -0.0000000557,   0.0000000000)
 A3 = (   0.0000000000,   0.0000000000,  14.3371324102)
 
   2 primitive cells build up your supercell.
 

 Routine SETGRP: Setting up the symmetry group for a 
 simple tetragonal supercell.


 Subroutine GETGRP returns: Found  4 space group operations
 (whereof  4 operations were pure point group operations)
 out of a pool of 16 trial point group operations.


The dynamic configuration has the point symmetry     .


Analysis of structural, dynamic, and magnetic symmetry:
=====================================================================
 Subroutine PRICEL returns:
 Original cell was already a primitive cell.
 

 Routine SETGRP: Setting up the symmetry group for a 
 simple tetragonal supercell.


 Subroutine GETGRP returns: Found  4 space group operations
 (whereof  2 operations were pure point group operations)
 out of a pool of 16 trial point group operations.


The overall configuration has the point symmetry C_2 .
 The point group associated with its full space group is C_2 .


 Subroutine INISYM returns: Found  4 space group operations
 (whereof  2 operations are pure point group operations),
 and found     1 'primitive' translations


----------------------------------------------------------------------------------------

                                     Primitive cell                                     

  volume of cell :    8787.0935

  direct lattice vectors                    reciprocal lattice vectors
    17.505578908-17.505579019  0.000000000     0.028562323 -0.028562323 -0.000000000
    17.505579019 17.505578908  0.000000000     0.028562323  0.028562323  0.000000000
    -0.000000000 -0.000000000 14.337132410    -0.000000000 -0.000000000  0.069748955

  length of vectors
    24.756627187 24.756627187 14.337132410     0.040393225  0.040393225  0.069748955

  position of ions in fractional coordinates (direct lattice)
     0.000000000  0.000000000  0.492295292
     0.500000000  0.500000000  0.492295292
     0.625654330  0.564792632  0.489218496
     0.125654330  0.064792632  0.489218496
     0.374345670  0.435207368  0.489218496
     0.874345670  0.935207368  0.489218496
     0.935207368  0.125654330  0.489218496
     0.435207368  0.625654330  0.489218496
     0.064792632  0.874345670  0.489218496
     0.564792632  0.374345670  0.489218496
     0.033421188  0.200096280  0.509079394
     0.533421188  0.700096280  0.509079394
     0.966578812  0.799903720  0.509079394
     0.466578812  0.299903720  0.509079394
     0.299903720  0.533421188  0.509079394
     0.799903720  0.033421188  0.509079394
     0.700096280  0.466578812  0.509079394
     0.200096280  0.966578812  0.509079394
     0.073283529  0.128102102  0.496340275
     0.573283529  0.628102102  0.496340275
     0.426716471  0.371897898  0.496340275
     0.926716471  0.871897898  0.496340275
     0.871897898  0.073283529  0.496340275
     0.371897898  0.573283529  0.496340275
     0.628102102  0.426716471  0.496340275
     0.128102102  0.926716471  0.496340275
     0.672989469  0.634094730  0.494568974
     0.172989469  0.134094730  0.494568974
     0.327010531  0.365905270  0.494568974
     0.827010531  0.865905270  0.494568974
     0.865905270  0.172989469  0.494568974
     0.365905270  0.672989469  0.494568974
     0.134094730  0.827010531  0.494568974
     0.634094730  0.327010531  0.494568974
     0.168983888  0.192948710  0.502388480
     0.668983888  0.692948710  0.502388480
     0.331016112  0.307051290  0.502388480
     0.831016112  0.807051290  0.502388480
     0.807051290  0.168983888  0.502388480
     0.307051290  0.668983888  0.502388480
     0.692948710  0.331016112  0.502388480
     0.192948710  0.831016112  0.502388480
     0.115668421  0.217977165  0.515450232
     0.615668421  0.717977165  0.515450232
     0.884331579  0.782022835  0.515450232
     0.384331579  0.282022835  0.515450232
     0.282022835  0.615668421  0.515450232
     0.782022835  0.115668421  0.515450232
     0.717977165  0.384331579  0.515450232
     0.217977165  0.884331579  0.515450232
     0.214970379  0.225085836  0.499203171
     0.714970379  0.725085836  0.499203171
     0.285029621  0.274914164  0.499203171
     0.785029621  0.774914164  0.499203171
     0.774914164  0.214970379  0.499203171
     0.274914164  0.714970379  0.499203171
     0.725085836  0.285029621  0.499203171
     0.225085836  0.785029621  0.499203171
     0.225345160  0.284629530  0.494931681
     0.725345160  0.784629530  0.494931681
     0.774654840  0.715370470  0.494931681
     0.274654840  0.215370470  0.494931681
     0.215370470  0.725345160  0.494931681
     0.715370470  0.225345160  0.494931681
     0.784629530  0.274654840  0.494931681
     0.284629530  0.774654840  0.494931681
     0.013526799  0.091723140  0.492649079
     0.513526799  0.591723140  0.492649079
     0.986473201  0.908276860  0.492649079
     0.486473201  0.408276860  0.492649079
     0.408276860  0.513526799  0.492649079
     0.908276860  0.013526799  0.492649079
     0.591723140  0.486473201  0.492649079
     0.091723140  0.986473201  0.492649079
     0.622457540  0.606243081  0.492810464
     0.122457540  0.106243081  0.492810464
     0.377542460  0.393756919  0.492810464
     0.877542460  0.893756919  0.492810464
     0.893756919  0.122457540  0.492810464
     0.393756919  0.622457540  0.492810464
     0.106243081  0.877542460  0.492810464
     0.606243081  0.377542460  0.492810464
     0.070388240  0.182048785  0.503952018
     0.570388240  0.682048785  0.503952018
     0.929611760  0.817951215  0.503952018
     0.429611760  0.317951215  0.503952018
     0.317951215  0.570388240  0.503952018
     0.817951215  0.070388240  0.503952018
     0.682048785  0.429611760  0.503952018
     0.182048785  0.929611760  0.503952018
     0.105607367  0.265020628  0.534130973
     0.605607367  0.765020628  0.534130973
     0.894392633  0.734979372  0.534130973
     0.394392633  0.234979372  0.534130973
     0.234979372  0.605607367  0.534130973
     0.734979372  0.105607367  0.534130973
     0.765020628  0.394392633  0.534130973
     0.265020628  0.894392633  0.534130973
     0.713701221  0.606042099  0.490848387
     0.213701221  0.106042099  0.490848387
     0.286298779  0.393957901  0.490848387
     0.786298779  0.893957901  0.490848387
     0.893957901  0.213701221  0.490848387
     0.393957901  0.713701221  0.490848387
     0.106042099  0.786298779  0.490848387
     0.606042099  0.286298779  0.490848387
     0.196708971  0.324407143  0.486354553
     0.696708971  0.824407143  0.486354553
     0.803291029  0.675592857  0.486354553
     0.303291029  0.175592857  0.486354553
     0.175592857  0.696708971  0.486354553
     0.675592857  0.196708971  0.486354553
     0.824407143  0.303291029  0.486354553
     0.324407143  0.803291029  0.486354553

  ion indices of the primitive-cell ions
   primitive index   ion index
                 1           1
                 2           2
                 3           3
                 4           4
                 5           5
                 6           6
                 7           7
                 8           8
                 9           9
                10          10
                11          11
                12          12
                13          13
                14          14
                15          15
                16          16
                17          17
                18          18
                19          19
                20          20
                21          21
                22          22
                23          23
                24          24
                25          25
                26          26
                27          27
                28          28
                29          29
                30          30
                31          31
                32          32
                33          33
                34          34
                35          35
                36          36
                37          37
                38          38
                39          39
                40          40
                41          41
                42          42
                43          43
                44          44
                45          45
                46          46
                47          47
                48          48
                49          49
                50          50
                51          51
                52          52
                53          53
                54          54
                55          55
                56          56
                57          57
                58          58
                59          59
                60          60
                61          61
                62          62
                63          63
                64          64
                65          65
                66          66
                67          67
                68          68
                69          69
                70          70
                71          71
                72          72
                73          73
                74          74
                75          75
                76          76
                77          77
                78          78
                79          79
                80          80
                81          81
                82          82
                83          83
                84          84
                85          85
                86          86
                87          87
                88          88
                89          89
                90          90
                91          91
                92          92
                93          93
                94          94
                95          95
                96          96
                97          97
                98          98
                99          99
               100         100
               101         101
               102         102
               103         103
               104         104
               105         105
               106         106
               107         107
               108         108
               109         109
               110         110
               111         111
               112         112
               113         113
               114         114

----------------------------------------------------------------------------------------

 
 
 KPOINTS: K-Path Generated by VASPKIT.            

Interpolating k-points between supplied coordinates.

 Line segments in fractional coordinates (reciprocal lattice):
    0.000000  0.000000  0.000000  ...  0.500000  0.000000  0.000000
    0.500000  0.000000  0.000000  ...  0.500000  0.500000  0.000000
    0.500000  0.500000  0.000000  ...  0.000000  0.000000  0.000000
    0.000000  0.000000  0.000000  ... -0.500000  0.500000  0.000000
   -0.500000  0.500000  0.000000  ...  0.000000  0.500000  0.000000
    0.000000  0.500000  0.000000  ...  0.000000  0.000000  0.000000

 Generated    10 points on each line segment, for a total of     60 k-points:

 Following reciprocal coordinates:
            Coordinates               Weight
  0.000000  0.000000  0.000000      0.016667
  0.055556  0.000000  0.000000      0.016667
  0.111111  0.000000  0.000000      0.016667
  0.166667  0.000000  0.000000      0.016667
  0.222222  0.000000  0.000000      0.016667
  0.277778  0.000000  0.000000      0.016667
  0.333333  0.000000  0.000000      0.016667
  0.388889  0.000000  0.000000      0.016667
  0.444444  0.000000  0.000000      0.016667
  0.500000  0.000000  0.000000      0.016667
  0.500000  0.000000  0.000000      0.016667
  0.500000  0.055556  0.000000      0.016667
  0.500000  0.111111  0.000000      0.016667
  0.500000  0.166667  0.000000      0.016667
  0.500000  0.222222  0.000000      0.016667
  0.500000  0.277778  0.000000      0.016667
  0.500000  0.333333  0.000000      0.016667
  0.500000  0.388889  0.000000      0.016667
  0.500000  0.444444  0.000000      0.016667
  0.500000  0.500000  0.000000      0.016667
  0.500000  0.500000  0.000000      0.016667
  0.444444  0.444444  0.000000      0.016667
  0.388889  0.388889  0.000000      0.016667
  0.333333  0.333333  0.000000      0.016667
  0.277778  0.277778  0.000000      0.016667
  0.222222  0.222222  0.000000      0.016667
  0.166667  0.166667  0.000000      0.016667
  0.111111  0.111111  0.000000      0.016667
  0.055556  0.055556  0.000000      0.016667
  0.000000  0.000000  0.000000      0.016667
  0.000000  0.000000  0.000000      0.016667
 -0.055556  0.055556  0.000000      0.016667
 -0.111111  0.111111  0.000000      0.016667
 -0.166667  0.166667  0.000000      0.016667
 -0.222222  0.222222  0.000000      0.016667
 -0.277778  0.277778  0.000000      0.016667
 -0.333333  0.333333  0.000000      0.016667
 -0.388889  0.388889  0.000000      0.016667
 -0.444444  0.444444  0.000000      0.016667
 -0.500000  0.500000  0.000000      0.016667
 -0.500000  0.500000  0.000000      0.016667
 -0.444444  0.500000  0.000000      0.016667
 -0.388889  0.500000  0.000000      0.016667
 -0.333333  0.500000  0.000000      0.016667
 -0.277778  0.500000  0.000000      0.016667
 -0.222222  0.500000  0.000000      0.016667
 -0.166667  0.500000  0.000000      0.016667
 -0.111111  0.500000  0.000000      0.016667
 -0.055556  0.500000  0.000000      0.016667
 -0.000000  0.500000  0.000000      0.016667
  0.000000  0.500000  0.000000      0.016667
  0.000000  0.444444  0.000000      0.016667
  0.000000  0.388889  0.000000      0.016667
  0.000000  0.333333  0.000000      0.016667
  0.000000  0.277778  0.000000      0.016667
  0.000000  0.222222  0.000000      0.016667
  0.000000  0.166667  0.000000      0.016667
  0.000000  0.111111  0.000000      0.016667
  0.000000  0.055556  0.000000      0.016667
  0.000000  0.000000  0.000000      0.016667

 Following cartesian coordinates:
            Coordinates               Weight
  0.000000  0.000000  0.000000      0.016667
  0.001587 -0.001587 -0.000000      0.016667
  0.003174 -0.003174 -0.000000      0.016667
  0.004760 -0.004760 -0.000000      0.016667
  0.006347 -0.006347 -0.000000      0.016667
  0.007934 -0.007934 -0.000000      0.016667
  0.009521 -0.009521 -0.000000      0.016667
  0.011108 -0.011108 -0.000000      0.016667
  0.012694 -0.012694 -0.000000      0.016667
  0.014281 -0.014281 -0.000000      0.016667
  0.014281 -0.014281 -0.000000      0.016667
  0.015868 -0.012694  0.000000      0.016667
  0.017455 -0.011108  0.000000      0.016667
  0.019042 -0.009521  0.000000      0.016667
  0.020628 -0.007934  0.000000      0.016667
  0.022215 -0.006347  0.000000      0.016667
  0.023802 -0.004760  0.000000      0.016667
  0.025389 -0.003174  0.000000      0.016667
  0.026976 -0.001587  0.000000      0.016667
  0.028562 -0.000000  0.000000      0.016667
  0.028562 -0.000000  0.000000      0.016667
  0.025389 -0.000000  0.000000      0.016667
  0.022215 -0.000000  0.000000      0.016667
  0.019042 -0.000000  0.000000      0.016667
  0.015868 -0.000000  0.000000      0.016667
  0.012694 -0.000000  0.000000      0.016667
  0.009521 -0.000000  0.000000      0.016667
  0.006347 -0.000000  0.000000      0.016667
  0.003174 -0.000000  0.000000      0.016667
  0.000000 -0.000000  0.000000      0.016667
  0.000000  0.000000  0.000000      0.016667
  0.000000  0.003174  0.000000      0.016667
  0.000000  0.006347  0.000000      0.016667
  0.000000  0.009521  0.000000      0.016667
  0.000000  0.012694  0.000000      0.016667
  0.000000  0.015868  0.000000      0.016667
  0.000000  0.019042  0.000000      0.016667
  0.000000  0.022215  0.000000      0.016667
  0.000000  0.025389  0.000000      0.016667
  0.000000  0.028562  0.000000      0.016667
  0.000000  0.028562  0.000000      0.016667
  0.001587  0.026976  0.000000      0.016667
  0.003174  0.025389  0.000000      0.016667
  0.004760  0.023802  0.000000      0.016667
  0.006347  0.022215  0.000000      0.016667
  0.007934  0.020628  0.000000      0.016667
  0.009521  0.019042  0.000000      0.016667
  0.011108  0.017455  0.000000      0.016667
  0.012694  0.015868  0.000000      0.016667
  0.014281  0.014281  0.000000      0.016667
  0.014281  0.014281  0.000000      0.016667
  0.012694  0.012694  0.000000      0.016667
  0.011108  0.011108  0.000000      0.016667
  0.009521  0.009521  0.000000      0.016667
  0.007934  0.007934  0.000000      0.016667
  0.006347  0.006347  0.000000      0.016667
  0.004760  0.004760  0.000000      0.016667
  0.003174  0.003174  0.000000      0.016667
  0.001587  0.001587  0.000000      0.016667
  0.000000  0.000000  0.000000      0.016667
 


--------------------------------------------------------------------------------------------------------




 Dimension of arrays:
   k-points           NKPTS =     60   k-points in BZ     NKDIM =     60   number of bands    NBANDS=    312
   number of dos      NEDOS =    301   number of ions     NIONS =    114
   non local maximal  LDIM  =      6   non local SUM 2l+1 LMDIM =     18
   total plane-waves  NPLWV = ******
   max r-space proj   IRMAX =   1730   max aug-charges    IRDMAX=   6408
   dimension x,y,z NGX =   140 NGY =  140 NGZ =   80
   dimension x,y,z NGXF=   280 NGYF=  280 NGZF=  160
   support grid    NGXF=   280 NGYF=  280 NGZF=  160
   ions per type =               2  16  48   8  16  24
   NGX,Y,Z   is equivalent  to a cutoff of   9.40,  9.40,  9.28 a.u.
   NGXF,Y,Z  is equivalent  to a cutoff of  18.80, 18.80, 18.55 a.u.

 SYSTEM =  unknown system                          
 POSCAR =  Cr2 H16 C48 S8 N16 O24                  

 Startparameter for this run:
   NWRITE =      2    write-flag & timer
   PREC   = normal    normal or accurate (medium, high low for compatibility)
   ISTART =      0    job   : 0-new  1-cont  2-samecut
   ICHARG =     11    charge: 1-file 2-atom 10-const
   ISPIN  =      2    spin polarized calculation?
   LNONCOLLINEAR =      F non collinear calculations
   LSORBIT =      F    spin-orbit coupling
   INIWAV =      1    electr: 0-lowe 1-rand  2-diag
   LASPH  =      F    aspherical Exc in radial PAW
 Electronic Relaxation 1
   ENCUT  =  500.0 eV  36.75 Ry    6.06 a.u.  45.14 45.14 26.14*2*pi/ulx,y,z
   ENINI  =  500.0     initial cutoff
   ENAUG  =  644.9 eV  augmentation charge cutoff
   NELM   =    200;   NELMIN=  2; NELMDL=  0     # of ELM steps 
   EDIFF  = 0.1E-04   stopping-criterion for ELM
   LREAL  =      T    real-space projection
   NLSPLINE    = F    spline interpolate recip. space projectors
   LCOMPAT=      F    compatible to vasp.4.4
   GGA_COMPAT  = T    GGA compatible to vasp.4.4-vasp.4.6
   LMAXPAW     = -100 max onsite density
   LMAXMIX     =    4 max onsite mixed and CHGCAR
   VOSKOWN=      0    Vosko Wilk Nusair interpolation
   ROPT   =   -0.00050  -0.00050  -0.00050  -0.00050
   ROPT   =   -0.00050  -0.00050
 Ionic relaxation
   EDIFFG = -.1E-01   stopping-criterion for IOM
   NSW    =      0    number of steps for IOM
   NBLOCK =      1;   KBLOCK =      1    inner block; outer block 
   IBRION =     -1    ionic relax: 0-MD 1-quasi-New 2-CG
   NFREE  =      0    steps in history (QN), initial steepest desc. (CG)
   ISIF   =      2    stress and relaxation
   IWAVPR =     10    prediction:  0-non 1-charg 2-wave 3-comb
   ISYM   =      2    0-nonsym 1-usesym 2-fastsym
   LCORR  =      T    Harris-Foulkes like correction to forces

   POTIM  = 0.5000    time-step for ionic-motion
   TEIN   =    0.0    initial temperature
   TEBEG  =    0.0;   TEEND  =   0.0 temperature during run
   SMASS  =  -3.00    Nose mass-parameter (am)
   estimated Nose-frequenzy (Omega)   =  0.10E-29 period in steps = 0.13E+47 mass=  -0.140E-25a.u.
   SCALEE = 1.0000    scale energy and forces
   NPACO  =    256;   APACO  = 10.0  distance and # of slots for P.C.
   PSTRESS=    0.0 pullay stress

  Mass of Ions in am
   POMASS =  52.00  1.00 12.01 32.07 14.00 16.00
  Ionic Valenz
   ZVAL   =  12.00  1.00  4.00  6.00  5.00  6.00
  Atomic Wigner-Seitz radii
   RWIGS  =  -1.00 -1.00 -1.00 -1.00 -1.00 -1.00
  virtual crystal weights 
   VCA    =   1.00  1.00  1.00  1.00  1.00  1.00
   NELECT =     504.0000    total number of electrons
   NUPDOWN=      -1.0000    fix difference up-down

 DOS related values:
   EMIN   =  10.00;   EMAX   =-10.00  energy-range for DOS
   EFERMI =   0.00
   ISMEAR =     1;   SIGMA  =   0.20  broadening in eV -4-tet -1-fermi 0-gaus

 Electronic relaxation 2 (details)
   IALGO  =     68    algorithm
   LDIAG  =      T    sub-space diagonalisation (order eigenvalues)
   LSUBROT=      F    optimize rotation matrix (better conditioning)
   TURBO    =      0    0=normal 1=particle mesh
   IRESTART =      0    0=no restart 2=restart with 2 vectors
   NREBOOT  =      0    no. of reboots
   NMIN     =      0    reboot dimension
   EREF     =   0.00    reference energy to select bands
   IMIX   =      4    mixing-type and parameters
     AMIX     =   0.20;   BMIX     =  0.00
     AMIX_MAG =   0.80;   BMIX_MAG =  0.00
     AMIN     =   0.10
     WC   =   100.;   INIMIX=   1;  MIXPRE=   1;  MAXMIX= -45

 Intra band minimization:
   WEIMIN = 0.0000     energy-eigenvalue tresh-hold
   EBREAK =  0.80E-08  absolut break condition
   DEPER  =   0.30     relativ break condition  

   TIME   =   0.40     timestep for ELM

  volume/ion in A,a.u.               =      77.08       520.16
  Fermi-wavevector in a.u.,A,eV,Ry     =   0.631350  1.193078  5.423314  0.398602
  Thomas-Fermi vector in A             =   1.694294
 
 Write flags
   LWAVE        =      F    write WAVECAR
   LDOWNSAMPLE  =      F    k-point downsampling of WAVECAR
   LCHARG       =      F    write CHGCAR
   LVTOT        =      T    write LOCPOT, total local potential
   LVHAR        =      F    write LOCPOT, Hartree potential only
   LELF         =      F    write electronic localiz. function (ELF)
   LORBIT       =     11    0 simple, 1 ext, 2 COOP (PROOUT), +10 PAW based schemes


 Dipole corrections
   LMONO  =      F    monopole corrections only (constant potential shift)
   LDIPOL =      F    correct potential (dipole corrections)
   IDIPOL =      0    1-x, 2-y, 3-z, 4-all directions 
   EPSILON=  1.0000000 bulk dielectric constant

 LDA+U is selected, type is set to LDAUTYPE =  2
   angular momentum for each species LDAUL =     2   -1   -1   -1   -1   -1
   U (eV)           for each species LDAUU =   3.0  0.0  0.0  0.0  0.0  0.0
   J (eV)           for each species LDAUJ =   1.0  0.0  0.0  0.0  0.0  0.0
 Exchange correlation treatment:
   GGA     =    --    GGA type
   LEXCH   =     8    internal setting for exchange type
   LIBXC   =     F    Libxc                    
   VOSKOWN =     0    Vosko Wilk Nusair interpolation
   LHFCALC =     F    Hartree Fock is set to
   LHFONE  =     F    Hartree Fock one center treatment
   AEXX    =    0.0000 exact exchange contribution

 Linear response parameters
   LEPSILON=     F    determine dielectric tensor
   LRPA    =     F    only Hartree local field effects (RPA)
   LNABLA  =     F    use nabla operator in PAW spheres
   LVEL    =     F    velocity operator in full k-point grid
   CSHIFT  =0.1000    complex shift for real part using Kramers Kronig
   OMEGAMAX=  -1.0    maximum frequency
   DEG_THRESHOLD= 0.2000000E-02 threshold for treating states as degnerate
   RTIME   =   -0.100 relaxation time in fs
  (WPLASMAI=    0.000 imaginary part of plasma frequency in eV, 0.658/RTIME)
   DFIELD  = 0.0000000 0.0000000 0.0000000 field for delta impulse in time
 
  Optional k-point grid parameters
   LKPOINTS_OPT  =     F    use optional k-point grid
   KPOINTS_OPT_MODE=     1    mode for optional k-point grid
 
 Orbital magnetization related:
   ORBITALMAG=     F  switch on orbital magnetization
   LCHIMAG   =     F  perturbation theory with respect to B field
   DQ        =  0.001000  dq finite difference perturbation B field
   LLRAUG    =     F  two centre corrections for induced B field



--------------------------------------------------------------------------------------------------------


 Static calculation
 charge density and potential remain constant during run
 spin polarized calculation
 RMM-DIIS sequential band-by-band and
  variant of blocked Davidson during initial phase
 perform sub-space diagonalisation
    before iterative eigenvector-optimisation
 no mixing
 using additional bands           60
 real space projection scheme for non local part
 use partial core corrections
 calculate Harris-corrections to forces 
   (improved forces if not selfconsistent)
 use gradient corrections 
 WARNING: stress and forces are not correct
  (second derivative of E(xc) not defined)
 use of overlap-Matrix (Vanderbilt PP)
 Methfessel and Paxton  Order N= 1 SIGMA  =   0.20


--------------------------------------------------------------------------------------------------------


  energy-cutoff  :      500.00
  volume of cell :     8787.09
      direct lattice vectors                 reciprocal lattice vectors
    17.505578908-17.505579019  0.000000000     0.028562323 -0.028562323 -0.000000000
    17.505579019 17.505578908  0.000000000     0.028562323  0.028562323  0.000000000
    -0.000000000 -0.000000000 14.337132410    -0.000000000 -0.000000000  0.069748955

  length of vectors
    24.756627187 24.756627187 14.337132410     0.040393225  0.040393225  0.069748955


 
 k-points in units of 2pi/SCALE and weight: K-Path Generated by VASPKIT.            
   0.00000000  0.00000000  0.00000000       0.017
   0.00158680 -0.00158680 -0.00000000       0.017
   0.00317359 -0.00317359 -0.00000000       0.017
   0.00476039 -0.00476039 -0.00000000       0.017
   0.00634718 -0.00634718 -0.00000000       0.017
   0.00793398 -0.00793398 -0.00000000       0.017
   0.00952077 -0.00952077 -0.00000000       0.017
   0.01110757 -0.01110757 -0.00000000       0.017
   0.01269437 -0.01269437 -0.00000000       0.017
   0.01428116 -0.01428116 -0.00000000       0.017
   0.01428116 -0.01428116 -0.00000000       0.017
   0.01586796 -0.01269437  0.00000000       0.017
   0.01745475 -0.01110757  0.00000000       0.017
   0.01904155 -0.00952077  0.00000000       0.017
   0.02062834 -0.00793398  0.00000000       0.017
   0.02221514 -0.00634718  0.00000000       0.017
   0.02380194 -0.00476039  0.00000000       0.017
   0.02538873 -0.00317359  0.00000000       0.017
   0.02697553 -0.00158680  0.00000000       0.017
   0.02856232 -0.00000000  0.00000000       0.017
   0.02856232 -0.00000000  0.00000000       0.017
   0.02538873 -0.00000000  0.00000000       0.017
   0.02221514 -0.00000000  0.00000000       0.017
   0.01904155 -0.00000000  0.00000000       0.017
   0.01586796 -0.00000000  0.00000000       0.017
   0.01269437 -0.00000000  0.00000000       0.017
   0.00952077 -0.00000000  0.00000000       0.017
   0.00634718 -0.00000000  0.00000000       0.017
   0.00317359 -0.00000000  0.00000000       0.017
   0.00000000 -0.00000000  0.00000000       0.017
   0.00000000  0.00000000  0.00000000       0.017
   0.00000000  0.00317359  0.00000000       0.017
   0.00000000  0.00634718  0.00000000       0.017
   0.00000000  0.00952077  0.00000000       0.017
   0.00000000  0.01269437  0.00000000       0.017
   0.00000000  0.01586796  0.00000000       0.017
   0.00000000  0.01904155  0.00000000       0.017
   0.00000000  0.02221514  0.00000000       0.017
   0.00000000  0.02538873  0.00000000       0.017
   0.00000000  0.02856232  0.00000000       0.017
   0.00000000  0.02856232  0.00000000       0.017
   0.00158680  0.02697553  0.00000000       0.017
   0.00317359  0.02538873  0.00000000       0.017
   0.00476039  0.02380194  0.00000000       0.017
   0.00634718  0.02221514  0.00000000       0.017
   0.00793398  0.02062834  0.00000000       0.017
   0.00952077  0.01904155  0.00000000       0.017
   0.01110757  0.01745475  0.00000000       0.017
   0.01269437  0.01586796  0.00000000       0.017
   0.01428116  0.01428116  0.00000000       0.017
   0.01428116  0.01428116  0.00000000       0.017
   0.01269437  0.01269437  0.00000000       0.017
   0.01110757  0.01110757  0.00000000       0.017
   0.00952077  0.00952077  0.00000000       0.017
   0.00793398  0.00793398  0.00000000       0.017
   0.00634718  0.00634718  0.00000000       0.017
   0.00476039  0.00476039  0.00000000       0.017
   0.00317359  0.00317359  0.00000000       0.017
   0.00158680  0.00158680  0.00000000       0.017
   0.00000000  0.00000000  0.00000000       0.017
 
 k-points in reciprocal lattice and weights: K-Path Generated by VASPKIT.            
   0.00000000  0.00000000  0.00000000       0.017
   0.05555556  0.00000000  0.00000000       0.017
   0.11111111  0.00000000  0.00000000       0.017
   0.16666667  0.00000000  0.00000000       0.017
   0.22222222  0.00000000  0.00000000       0.017
   0.27777778  0.00000000  0.00000000       0.017
   0.33333333  0.00000000  0.00000000       0.017
   0.38888889  0.00000000  0.00000000       0.017
   0.44444444  0.00000000  0.00000000       0.017
   0.50000000  0.00000000  0.00000000       0.017
   0.50000000  0.00000000  0.00000000       0.017
   0.50000000  0.05555556  0.00000000       0.017
   0.50000000  0.11111111  0.00000000       0.017
   0.50000000  0.16666667  0.00000000       0.017
   0.50000000  0.22222222  0.00000000       0.017
   0.50000000  0.27777778  0.00000000       0.017
   0.50000000  0.33333333  0.00000000       0.017
   0.50000000  0.38888889  0.00000000       0.017
   0.50000000  0.44444444  0.00000000       0.017
   0.50000000  0.50000000  0.00000000       0.017
   0.50000000  0.50000000  0.00000000       0.017
   0.44444444  0.44444444  0.00000000       0.017
   0.38888889  0.38888889  0.00000000       0.017
   0.33333333  0.33333333  0.00000000       0.017
   0.27777778  0.27777778  0.00000000       0.017
   0.22222222  0.22222222  0.00000000       0.017
   0.16666667  0.16666667  0.00000000       0.017
   0.11111111  0.11111111  0.00000000       0.017
   0.05555556  0.05555556  0.00000000       0.017
   0.00000000  0.00000000  0.00000000       0.017
   0.00000000  0.00000000  0.00000000       0.017
  -0.05555556  0.05555556  0.00000000       0.017
  -0.11111111  0.11111111  0.00000000       0.017
  -0.16666667  0.16666667  0.00000000       0.017
  -0.22222222  0.22222222  0.00000000       0.017
  -0.27777778  0.27777778  0.00000000       0.017
  -0.33333333  0.33333333  0.00000000       0.017
  -0.38888889  0.38888889  0.00000000       0.017
  -0.44444444  0.44444444  0.00000000       0.017
  -0.50000000  0.50000000  0.00000000       0.017
  -0.50000000  0.50000000  0.00000000       0.017
  -0.44444444  0.50000000  0.00000000       0.017
  -0.38888889  0.50000000  0.00000000       0.017
  -0.33333333  0.50000000  0.00000000       0.017
  -0.27777778  0.50000000  0.00000000       0.017
  -0.22222222  0.50000000  0.00000000       0.017
  -0.16666667  0.50000000  0.00000000       0.017
  -0.11111111  0.50000000  0.00000000       0.017
  -0.05555556  0.50000000  0.00000000       0.017
  -0.00000000  0.50000000  0.00000000       0.017
   0.00000000  0.50000000  0.00000000       0.017
   0.00000000  0.44444444  0.00000000       0.017
   0.00000000  0.38888889  0.00000000       0.017
   0.00000000  0.33333333  0.00000000       0.017
   0.00000000  0.27777778  0.00000000       0.017
   0.00000000  0.22222222  0.00000000       0.017
   0.00000000  0.16666667  0.00000000       0.017
   0.00000000  0.11111111  0.00000000       0.017
   0.00000000  0.05555556  0.00000000       0.017
   0.00000000  0.00000000  0.00000000       0.017
 
 position of ions in fractional coordinates (direct lattice) 
   0.00000000  0.00000000  0.49229529
   0.50000000  0.50000000  0.49229529
   0.62565433  0.56479263  0.48921850
   0.12565433  0.06479263  0.48921850
   0.37434567  0.43520737  0.48921850
   0.87434567  0.93520737  0.48921850
   0.93520737  0.12565433  0.48921850
   0.43520737  0.62565433  0.48921850
   0.06479263  0.87434567  0.48921850
   0.56479263  0.37434567  0.48921850
   0.03342119  0.20009628  0.50907939
   0.53342119  0.70009628  0.50907939
   0.96657881  0.79990372  0.50907939
   0.46657881  0.29990372  0.50907939
   0.29990372  0.53342119  0.50907939
   0.79990372  0.03342119  0.50907939
   0.70009628  0.46657881  0.50907939
   0.20009628  0.96657881  0.50907939
   0.07328353  0.12810210  0.49634028
   0.57328353  0.62810210  0.49634028
   0.42671647  0.37189790  0.49634028
   0.92671647  0.87189790  0.49634028
   0.87189790  0.07328353  0.49634028
   0.37189790  0.57328353  0.49634028
   0.62810210  0.42671647  0.49634028
   0.12810210  0.92671647  0.49634028
   0.67298947  0.63409473  0.49456897
   0.17298947  0.13409473  0.49456897
   0.32701053  0.36590527  0.49456897
   0.82701053  0.86590527  0.49456897
   0.86590527  0.17298947  0.49456897
   0.36590527  0.67298947  0.49456897
   0.13409473  0.82701053  0.49456897
   0.63409473  0.32701053  0.49456897
   0.16898389  0.19294871  0.50238848
   0.66898389  0.69294871  0.50238848
   0.33101611  0.30705129  0.50238848
   0.83101611  0.80705129  0.50238848
   0.80705129  0.16898389  0.50238848
   0.30705129  0.66898389  0.50238848
   0.69294871  0.33101611  0.50238848
   0.19294871  0.83101611  0.50238848
   0.11566842  0.21797716  0.51545023
   0.61566842  0.71797716  0.51545023
   0.88433158  0.78202284  0.51545023
   0.38433158  0.28202284  0.51545023
   0.28202284  0.61566842  0.51545023
   0.78202284  0.11566842  0.51545023
   0.71797716  0.38433158  0.51545023
   0.21797716  0.88433158  0.51545023
   0.21497038  0.22508584  0.49920317
   0.71497038  0.72508584  0.49920317
   0.28502962  0.27491416  0.49920317
   0.78502962  0.77491416  0.49920317
   0.77491416  0.21497038  0.49920317
   0.27491416  0.71497038  0.49920317
   0.72508584  0.28502962  0.49920317
   0.22508584  0.78502962  0.49920317
   0.22534516  0.28462953  0.49493168
   0.72534516  0.78462953  0.49493168
   0.77465484  0.71537047  0.49493168
   0.27465484  0.21537047  0.49493168
   0.21537047  0.72534516  0.49493168
   0.71537047  0.22534516  0.49493168
   0.78462953  0.27465484  0.49493168
   0.28462953  0.77465484  0.49493168
   0.01352680  0.09172314  0.49264908
   0.51352680  0.59172314  0.49264908
   0.98647320  0.90827686  0.49264908
   0.48647320  0.40827686  0.49264908
   0.40827686  0.51352680  0.49264908
   0.90827686  0.01352680  0.49264908
   0.59172314  0.48647320  0.49264908
   0.09172314  0.98647320  0.49264908
   0.62245754  0.60624308  0.49281046
   0.12245754  0.10624308  0.49281046
   0.37754246  0.39375692  0.49281046
   0.87754246  0.89375692  0.49281046
   0.89375692  0.12245754  0.49281046
   0.39375692  0.62245754  0.49281046
   0.10624308  0.87754246  0.49281046
   0.60624308  0.37754246  0.49281046
   0.07038824  0.18204879  0.50395202
   0.57038824  0.68204879  0.50395202
   0.92961176  0.81795121  0.50395202
   0.42961176  0.31795121  0.50395202
   0.31795121  0.57038824  0.50395202
   0.81795121  0.07038824  0.50395202
   0.68204879  0.42961176  0.50395202
   0.18204879  0.92961176  0.50395202
   0.10560737  0.26502063  0.53413097
   0.60560737  0.76502063  0.53413097
   0.89439263  0.73497937  0.53413097
   0.39439263  0.23497937  0.53413097
   0.23497937  0.60560737  0.53413097
   0.73497937  0.10560737  0.53413097
   0.76502063  0.39439263  0.53413097
   0.26502063  0.89439263  0.53413097
   0.71370122  0.60604210  0.49084839
   0.21370122  0.10604210  0.49084839
   0.28629878  0.39395790  0.49084839
   0.78629878  0.89395790  0.49084839
   0.89395790  0.21370122  0.49084839
   0.39395790  0.71370122  0.49084839
   0.10604210  0.78629878  0.49084839
   0.60604210  0.28629878  0.49084839
   0.19670897  0.32440714  0.48635455
   0.69670897  0.82440714  0.48635455
   0.80329103  0.67559286  0.48635455
   0.30329103  0.17559286  0.48635455
   0.17559286  0.69670897  0.48635455
   0.67559286  0.19670897  0.48635455
   0.82440714  0.30329103  0.48635455
   0.32440714  0.80329103  0.48635455
 
 position of ions in cartesian coordinates  (Angst):
  -0.00000000 -0.00000000  7.05810279
  17.50557896 -0.00000006  7.05810279
  20.83946329 -1.06541933  7.01399035
   3.33388433 -1.06541927  7.01399035
  14.17169464  1.06541922  7.01399035
  31.67727360  1.06541916  7.01399035
  18.57099818-14.17169469  7.01399035
  18.57099824  3.33388427  7.01399035
  16.44015974 14.17169458  7.01399035
  16.44015969 -3.33388438  7.01399035
   4.08785849  2.91774398  7.29873868
  21.59343745  2.91774392  7.29873868
  30.92329944 -2.91774409  7.29873868
  13.41772047 -2.91774404  7.29873868
  14.58783498  4.08785843  7.29873868
  14.58783493-13.41772053  7.29873868
  20.42332294 -4.08785855  7.29873868
  20.42332300 13.41772042  7.29873868
   3.52537206  0.95963084  7.11609625
  21.03095103  0.95963078  7.11609625
  13.98020690 -0.95963090  7.11609625
  31.48578586 -0.95963095  7.11609625
  16.54594807-13.98020695  7.11609625
  16.54594812  3.52537201  7.11609625
  18.46520980 -3.52537212  7.11609625
  18.46520986 13.98020684  7.11609625
  22.88126566 -0.68087500  7.09070086
   5.37568670 -0.68087495  7.09070086
  12.12989226  0.68087489  7.09070086
  29.63547123  0.68087484  7.09070086
  18.18645385-12.12989232  7.09070086
  18.18645391  5.37568665  7.09070086
  16.82470407 12.12989221  7.09070086
  16.82470402 -5.37568676  7.09070086
   6.33583968  0.41951806  7.20281016
  23.84141864  0.41951800  7.20281016
  11.16973928 -0.41951812  7.20281016
  28.67531825 -0.41951817  7.20281016
  17.08606085-11.16973934  7.20281016
[...]
     16.54595    -13.98021      7.11610        -0.074347     -0.253411      0.010970
     16.54595      3.52537      7.11610        -0.075158     -0.252006      0.012243
     18.46521     -3.52537      7.11610         0.075158      0.252006      0.012243
     18.46521     13.98021      7.11610         0.074347      0.253411      0.010970
     22.88127     -0.68088      7.09070         0.134640      0.099797     -0.018807
      5.37569     -0.68087      7.09070         0.134801      0.098098     -0.020654
     12.12989      0.68087      7.09070        -0.134640     -0.099797     -0.018807
     29.63547      0.68087      7.09070        -0.134801     -0.098098     -0.020654
     18.18645    -12.12989      7.09070        -0.099797      0.134640     -0.018807
     18.18645      5.37569      7.09070        -0.098098      0.134801     -0.020654
     16.82470     12.12989      7.09070         0.099797     -0.134640     -0.018807
     16.82470     -5.37569      7.09070         0.098098     -0.134801     -0.020654
      6.33584      0.41952      7.20281        -0.159982      0.035152     -0.036826
     23.84142      0.41952      7.20281        -0.174827      0.039287     -0.039597
     11.16974     -0.41952      7.20281         0.174827     -0.039287     -0.039597
     28.67532     -0.41952      7.20281         0.159982     -0.035152     -0.036826
     17.08606    -11.16974      7.20281        -0.039287     -0.174827     -0.039597
     17.08606      6.33584      7.20281        -0.035152     -0.159982     -0.036826
     17.92510     -6.33584      7.20281         0.035152      0.159982     -0.036826
     17.92510     11.16974      7.20281         0.039287      0.174827     -0.039597
      5.84066      1.79097      7.39008         0.062890     -0.115656      0.011290
     23.34624      1.79097      7.39008         0.062695     -0.112062      0.012409
     29.17050     -1.79097      7.39008        -0.062890      0.115656      0.011290
     11.66492     -1.79097      7.39008        -0.062695      0.112062      0.012409
     15.71461      5.84066      7.39008         0.115656      0.062890      0.011290
     15.71461    -11.66492      7.39008         0.112062      0.062695      0.012409
     19.29655     -5.84066      7.39008        -0.115656     -0.062890      0.011290
     19.29655     11.66492      7.39008        -0.112062     -0.062695      0.012409
      7.70344      0.17708      7.15714         0.202315      0.015298     -0.015877
     25.20902      0.17708      7.15714         0.215949      0.008005     -0.016766
      9.80214     -0.17708      7.15714        -0.215949     -0.008005     -0.016766
     27.30772     -0.17708      7.15714        -0.202315     -0.015298     -0.015877
     17.32850     -9.80214      7.15714        -0.008005      0.215949     -0.016766
     17.32850      7.70344      7.15714        -0.015298      0.202315     -0.015877
     17.68266     -7.70344      7.15714         0.015298     -0.202315     -0.015877
     17.68266      9.80214      7.15714         0.008005     -0.215949     -0.016766
      8.92740      1.03781      7.09590        -0.057376     -0.416118      0.034581
     26.43298      1.03781      7.09590        -0.067712     -0.404695      0.024188
     26.08376     -1.03781      7.09590         0.057376      0.416118      0.034581
      8.57818     -1.03781      7.09590         0.067712      0.404695      0.024188
     16.46777      8.92740      7.09590         0.416118     -0.057376      0.034581
     16.46777     -8.57818      7.09590         0.404695     -0.067712      0.024188
     18.54339     -8.92740      7.09590        -0.416118      0.057376      0.034581
     18.54339      8.57818      7.09590        -0.404695      0.067712      0.024188
      1.84246      1.36887      7.06318         1.099561      0.419859      0.009961
     19.34804      1.36887      7.06318         1.090297      0.408866      0.002181
     33.16870     -1.36887      7.06318        -1.099561     -0.419859      0.009961
     15.66312     -1.36887      7.06318        -1.090297     -0.408866      0.002181
     16.13671      1.84246      7.06318        -0.419859      1.099561      0.009961
     16.13671    -15.66312      7.06318        -0.408866      1.090297      0.002181
     18.87445     -1.84246      7.06318         0.419859     -1.099561      0.009961
     18.87445     15.66312      7.06318         0.408866     -1.090297      0.002181
     21.50912     -0.28384      7.06549        -0.083742     -0.042378      0.000385
      4.00354     -0.28384      7.06549        -0.086559     -0.047900      0.005562
     13.50204      0.28384      7.06549         0.083742      0.042378      0.000385
     31.00762      0.28384      7.06549         0.086559      0.047900      0.005562
     17.78942    -13.50204      7.06549         0.042378     -0.083742      0.000385
     17.78942      4.00354      7.06549         0.047900     -0.086559      0.005562
     17.22174     13.50204      7.06549        -0.042378      0.083742      0.000385
     17.22174     -4.00354      7.06549        -0.047900      0.086559      0.005562
      4.41906      1.95468      7.22523        -0.029701      0.088029     -0.007538
     21.92464      1.95468      7.22523        -0.028797      0.081703      0.000476
     30.59210     -1.95468      7.22523         0.029701     -0.088029     -0.007538
     13.08652     -1.95468      7.22523         0.028797     -0.081703      0.000476
     15.55090      4.41906      7.22523        -0.088029     -0.029701     -0.007538
     15.55090    -13.08652      7.22523        -0.081703     -0.028797      0.000476
     19.46026     -4.41906      7.22523         0.088029      0.029701     -0.007538
     19.46026     13.08652      7.22523         0.081703      0.028797      0.000476
      6.48806      2.79062      7.65791         0.001695      0.087499      0.017915
     23.99364      2.79062      7.65791         0.001920      0.088281      0.017860
     28.52310     -2.79062      7.65791        -0.001695     -0.087499      0.017915
     11.01752     -2.79062      7.65791        -0.001920     -0.088281      0.017860
     14.71496      6.48806      7.65791        -0.087499      0.001695      0.017915
     14.71496    -11.01752      7.65791        -0.088281      0.001920      0.017860
     20.29620     -6.48806      7.65791         0.087499     -0.001695      0.017915
     20.29620     11.01752      7.65791         0.088281     -0.001920      0.017860
     23.10287     -1.88464      7.03736        -0.006469     -0.099304      0.009617
      5.59729     -1.88464      7.03736        -0.008362     -0.093514      0.008305
     11.90829      1.88464      7.03736         0.006469      0.099304      0.009617
     29.41387      1.88464      7.03736         0.008362      0.093514      0.008305
     19.39021    -11.90829      7.03736         0.099304     -0.006469      0.009617
     19.39021      5.59729      7.03736         0.093514     -0.008362      0.008305
     15.62094     11.90829      7.03736        -0.099304      0.006469      0.009617
     15.62094     -5.59729      7.03736        -0.093514      0.008362      0.008305
      9.12244      2.23543      6.97293         0.019615      0.178440     -0.013850
     26.62802      2.23543      6.97293         0.025299      0.172478     -0.009872
     25.88872     -2.23543      6.97293        -0.019615     -0.178440     -0.013850
      8.38314     -2.23543      6.97293        -0.025299     -0.172478     -0.009872
     15.27015      9.12244      6.97293        -0.178440      0.019615     -0.013850
     15.27015     -8.38314      6.97293        -0.172478      0.025299     -0.009872
     19.74101     -9.12244      6.97293         0.178440     -0.019615     -0.013850
     19.74101      8.38314      6.97293         0.172478     -0.025299     -0.009872
 -----------------------------------------------------------------------------------
    total drift:                                0.000000      0.000000     -0.378662


--------------------------------------------------------------------------------------------------------



  FREE ENERGIE OF THE ION-ELECTRON SYSTEM (eV)
  ---------------------------------------------------
  free  energy   TOTEN  =      -826.49559783 eV

  energy  without entropy=     -826.48667205  energy(sigma->0) =     -826.49262257
 


--------------------------------------------------------------------------------------------------------


    POTLOK:  cpu time      0.5091: real time      0.5094


--------------------------------------------------------------------------------------------------------


     LOOP+:  cpu time   6262.4305: real time   6264.3080
    4ORBIT:  cpu time      0.0000: real time      0.0000



 total charge

# of ion       s       p       d       tot
------------------------------------------
    1        0.278   6.248   4.182  10.709
    2        0.278   6.248   4.182  10.709
    3        0.606   0.090   0.000   0.695
    4        0.606   0.090   0.000   0.695
    5        0.606   0.090   0.000   0.695
    6        0.606   0.090   0.000   0.695
    7        0.606   0.090   0.000   0.695
    8        0.606   0.090   0.000   0.695
    9        0.606   0.090   0.000   0.695
   10        0.606   0.090   0.000   0.695
   11        0.617   0.083   0.000   0.700
   12        0.617   0.083   0.000   0.700
   13        0.617   0.083   0.000   0.700
   14        0.617   0.083   0.000   0.700
   15        0.617   0.083   0.000   0.700
   16        0.617   0.083   0.000   0.700
   17        0.617   0.083   0.000   0.700
   18        0.617   0.083   0.000   0.700
   19        0.852   1.696   0.000   2.548
   20        0.852   1.697   0.000   2.549
   21        0.852   1.697   0.000   2.549
   22        0.852   1.696   0.000   2.548
   23        0.852   1.697   0.000   2.549
   24        0.852   1.696   0.000   2.548
   25        0.852   1.696   0.000   2.548
   26        0.852   1.697   0.000   2.549
   27        0.867   1.718   0.000   2.585
   28        0.867   1.718   0.000   2.585
   29        0.867   1.718   0.000   2.585
   30        0.867   1.718   0.000   2.585
   31        0.867   1.718   0.000   2.585
   32        0.867   1.718   0.000   2.585
   33        0.867   1.718   0.000   2.585
   34        0.867   1.718   0.000   2.585
   35        0.855   1.787   0.000   2.642
   36        0.855   1.786   0.000   2.641
   37        0.855   1.786   0.000   2.641
   38        0.855   1.787   0.000   2.642
   39        0.855   1.786   0.000   2.641
   40        0.855   1.787   0.000   2.642
   41        0.855   1.787   0.000   2.642
   42        0.855   1.786   0.000   2.641
   43        0.866   1.715   0.000   2.581
   44        0.866   1.715   0.000   2.581
   45        0.866   1.715   0.000   2.581
   46        0.866   1.715   0.000   2.581
   47        0.866   1.715   0.000   2.581
   48        0.866   1.715   0.000   2.581
   49        0.866   1.715   0.000   2.581
   50        0.866   1.715   0.000   2.581
   51        0.882   1.688   0.000   2.571
   52        0.882   1.689   0.000   2.571
   53        0.882   1.689   0.000   2.571
   54        0.882   1.688   0.000   2.571
   55        0.882   1.689   0.000   2.571
   56        0.882   1.688   0.000   2.571
   57        0.882   1.688   0.000   2.571
   58        0.882   1.689   0.000   2.571
   59        0.877   1.712   0.000   2.589
   60        0.877   1.712   0.000   2.589
   61        0.877   1.712   0.000   2.589
   62        0.877   1.712   0.000   2.589
   63        0.877   1.712   0.000   2.589
   64        0.877   1.712   0.000   2.589
   65        0.877   1.712   0.000   2.589
   66        0.877   1.712   0.000   2.589
   67        1.328   2.454   0.000   3.782
   68        1.328   2.454   0.000   3.781
   69        1.328   2.454   0.000   3.782
   70        1.328   2.454   0.000   3.781
   71        1.328   2.454   0.000   3.782
   72        1.328   2.454   0.000   3.781
   73        1.328   2.454   0.000   3.782
   74        1.328   2.454   0.000   3.781
   75        1.232   2.789   0.000   4.021
   76        1.232   2.790   0.000   4.021
   77        1.232   2.789   0.000   4.021
   78        1.232   2.790   0.000   4.021
   79        1.232   2.789   0.000   4.021
   80        1.232   2.790   0.000   4.021
   81        1.232   2.789   0.000   4.021
   82        1.232   2.790   0.000   4.021
   83        1.228   2.777   0.000   4.005
   84        1.228   2.777   0.000   4.005
   85        1.228   2.777   0.000   4.005
   86        1.228   2.777   0.000   4.005
   87        1.228   2.777   0.000   4.005
   88        1.228   2.777   0.000   4.005
   89        1.228   2.777   0.000   4.005
   90        1.228   2.777   0.000   4.005
   91        1.597   3.522   0.000   5.120
   92        1.597   3.523   0.000   5.120
   93        1.597   3.522   0.000   5.120
   94        1.597   3.523   0.000   5.120
   95        1.597   3.522   0.000   5.120
   96        1.597   3.523   0.000   5.120
   97        1.597   3.522   0.000   5.120
   98        1.597   3.523   0.000   5.120
   99        1.595   3.526   0.000   5.121
  100        1.595   3.526   0.000   5.121
  101        1.595   3.526   0.000   5.121
  102        1.595   3.526   0.000   5.121
  103        1.595   3.526   0.000   5.121
  104        1.595   3.526   0.000   5.121
  105        1.595   3.526   0.000   5.121
  106        1.595   3.526   0.000   5.121
  107        1.602   3.482   0.000   5.085
  108        1.602   3.483   0.000   5.085
  109        1.602   3.482   0.000   5.085
  110        1.602   3.483   0.000   5.085
  111        1.602   3.482   0.000   5.085
  112        1.602   3.483   0.000   5.085
  113        1.602   3.482   0.000   5.085
  114        1.602   3.483   0.000   5.085
--------------------------------------------------
tot        120.581 244.826   8.365 373.772



 magnetization (x)

# of ion       s       p       d       tot
------------------------------------------
    1        0.068   0.033   3.480   3.580
    2       -0.068  -0.033  -3.480  -3.580
    3        0.000  -0.000   0.000  -0.000
    4       -0.000   0.000   0.000   0.000
    5        0.000  -0.000   0.000  -0.000
    6       -0.000   0.000   0.000   0.000
    7       -0.000   0.000   0.000   0.000
    8        0.000  -0.000   0.000  -0.000
    9       -0.000   0.000   0.000   0.000
   10        0.000  -0.000   0.000  -0.000
   11       -0.000   0.000   0.000  -0.000
   12        0.000  -0.000   0.000   0.000
   13       -0.000   0.000   0.000  -0.000
   14        0.000  -0.000   0.000   0.000
   15        0.000  -0.000   0.000   0.000
   16       -0.000   0.000   0.000  -0.000
   17        0.000  -0.000   0.000   0.000
   18       -0.000   0.000   0.000  -0.000
   19        0.003   0.014   0.000   0.017
   20       -0.003  -0.008   0.000  -0.011
   21       -0.003  -0.008   0.000  -0.011
   22        0.003   0.014   0.000   0.017
   23        0.003   0.008   0.000   0.011
   24       -0.003  -0.014   0.000  -0.017
   25       -0.003  -0.014   0.000  -0.017
   26        0.003   0.008   0.000   0.011
   27        0.001   0.001   0.000   0.002
   28        0.001   0.001   0.000   0.002
   29        0.001   0.001   0.000   0.002
   30        0.001   0.001   0.000   0.002
   31       -0.001  -0.001   0.000  -0.002
   32       -0.001  -0.001   0.000  -0.002
   33       -0.001  -0.001   0.000  -0.002
   34       -0.001  -0.001   0.000  -0.002
   35        0.001   0.034   0.000   0.035
   36        0.001   0.034   0.000   0.035
   37        0.001   0.034   0.000   0.035
   38        0.001   0.034   0.000   0.035
   39       -0.001  -0.034   0.000  -0.035
   40       -0.001  -0.034   0.000  -0.035
   41       -0.001  -0.034   0.000  -0.035
   42       -0.001  -0.034   0.000  -0.035
   43        0.001  -0.002   0.000  -0.001
   44        0.001   0.000   0.000   0.001
   45        0.001  -0.002   0.000  -0.001
   46        0.001   0.000   0.000   0.001
   47       -0.001   0.002   0.000   0.001
   48       -0.001  -0.000   0.000  -0.001
   49       -0.001   0.002   0.000   0.001
   50       -0.001  -0.000   0.000  -0.001
   51        0.001   0.048   0.000   0.049
   52        0.001   0.050   0.000   0.051
   53        0.001   0.050   0.000   0.051
   54        0.001   0.048   0.000   0.049
   55       -0.001  -0.050   0.000  -0.051
   56       -0.001  -0.048   0.000  -0.049
   57       -0.001  -0.048   0.000  -0.049
   58       -0.001  -0.050   0.000  -0.051
   59       -0.003  -0.003   0.000  -0.006
   60       -0.003  -0.003   0.000  -0.006
   61       -0.003  -0.003   0.000  -0.006
   62       -0.003  -0.003   0.000  -0.006
   63        0.003   0.003   0.000   0.006
   64        0.003   0.003   0.000   0.006
   65        0.003   0.003   0.000   0.006
   66        0.003   0.003   0.000   0.006
   67       -0.002  -0.028   0.000  -0.029
   68        0.002   0.033   0.000   0.035
   69       -0.002  -0.028   0.000  -0.029
   70        0.002   0.033   0.000   0.035
   71        0.002   0.028   0.000   0.029
   72       -0.002  -0.033   0.000  -0.035
   73        0.002   0.028   0.000   0.029
   74       -0.002  -0.033   0.000  -0.035
   75        0.000  -0.003   0.000  -0.003
   76        0.001   0.005   0.000   0.006
   77        0.000  -0.003   0.000  -0.003
   78        0.001   0.005   0.000   0.006
   79       -0.000   0.003   0.000   0.003
   80       -0.001  -0.005   0.000  -0.006
   81       -0.000   0.003   0.000   0.003
   82       -0.001  -0.005   0.000  -0.006
   83        0.001   0.006   0.000   0.007
   84        0.001  -0.004   0.000  -0.003
   85        0.001   0.006   0.000   0.007
   86        0.001  -0.004   0.000  -0.003
   87       -0.001  -0.006   0.000  -0.007
   88       -0.001   0.004   0.000   0.003
   89       -0.001  -0.006   0.000  -0.007
   90       -0.001   0.004   0.000   0.003
   91        0.001   0.038   0.000   0.039
   92        0.001   0.038   0.000   0.039
   93        0.001   0.038   0.000   0.039
   94        0.001   0.038   0.000   0.039
   95       -0.001  -0.038   0.000  -0.039
   96       -0.001  -0.038   0.000  -0.039
   97       -0.001  -0.038   0.000  -0.039
   98       -0.001  -0.038   0.000  -0.039
   99        0.001   0.036   0.000   0.037
  100        0.001   0.039   0.000   0.040
  101        0.001   0.036   0.000   0.037
  102        0.001   0.039   0.000   0.040
  103       -0.001  -0.036   0.000  -0.037
  104       -0.001  -0.039   0.000  -0.040
  105       -0.001  -0.036   0.000  -0.037
  106       -0.001  -0.039   0.000  -0.040
  107        0.003   0.214   0.000   0.217
  108        0.003   0.214   0.000   0.217
  109        0.003   0.214   0.000   0.217
  110        0.003   0.214   0.000   0.217
  111       -0.003  -0.214   0.000  -0.217
  112       -0.003  -0.214   0.000  -0.217
  113       -0.003  -0.214   0.000  -0.217
  114       -0.003  -0.214   0.000  -0.217
--------------------------------------------------
tot          0.000  -0.000   0.000   0.000
 

 total amount of memory used by VASP MPI-rank0  2924209. kBytes
=======================================================================

   base      :      30000. kBytes
   nonlr-proj:       3943. kBytes
   fftplans  :      22535. kBytes
   grid      :      64512. kBytes
   one-center:        311. kBytes
   wavefun   :    2802908. kBytes
 
  
  
 General timing and accounting informations for this job:
 ========================================================
  
                  Total CPU time used (sec):     6722.021
                            User time (sec):     6574.435
                          System time (sec):      147.586
                         Elapsed time (sec):     6726.454
  
                   Maximum memory used (kb):     3473920.
                   Average memory used (kb):          N/A
  
                          Minor page faults:       977717
                          Major page faults:            3
                 Voluntary context switches:       216611
