 vasp.6.3.2 27Jun22 (build Aug 02 2025 14:55:03) complex                        
  
 executed on             LinuxIFC date 2026.02.01  21:04:37
 running on   48 total cores
 distrk:  each k-point on   48 cores,    1 groups
 distr:  one band on NCORE=  12 cores,    4 groups


--------------------------------------------------------------------------------------------------------


 INCAR:
   PREC = Normal
   ENCUT = 500
   IBRION = -1
   ISPIN = 2
   MAGMOM = 5 -5 4*1 4*-1 4*1 4*-1 4*1 4*-1 4*1 4*-1 4*1 4*-1 4*1 4*-1 4*1 4*-1 4*1 4*-1 4*1 4*-1 4*1 4*-1 4*1 4*-1 4*1 4*-1 4*1 4*-1 4*1 4*-1 4*1 4*-1 4*1 4*-1 4*1 4*-1 4*1 4*-1 4*1 4*-1 4*1 4*-1 4*1 4*-1 4*1 4*-1 4*1 4*-1 4*1 4*-1 4*1 4*-1 4*1 4*-1 4*1 4*-1 4*1 4*-1 4*1 4*-1 4*1 4*-1 4*1 4*-1 4*1 4*-1 4*1 4*-1 4*1 4*-1 4*1 4*-1 4*1 4*-1 4*1 4*-1 4*1 4*-1 4*1 4*-1
   NSW = 0
   NELM = 200
   ISIF = 2
   EDIFF = 1E-5
   EDIFFG = -0.01
   ALGO = Fast
   ISTART = 1
   ICHARG = 11
   LREAL = Auto
   LWAVE = .F.
   LCHARG = .F.
   LVTOT = .T.
   NPAR = 4
   AMIX = 0.2
   BMIX = 0.0001
   AMIX_MAG = 0.8
   BMIX_MAG = 0.0001
   LDAU = .TRUE.
   LDAUTYPE = 2
   LDAUL = 2 -1 -1 -1 -1 -1
   LDAUU = 3.0 0 0 0 0 0
   LDAUJ = 1.0 0 0 0 0 0
   LMAXMIX = 4
   LORBIT = 11

 POTCAR:    PAW_PBE Cr_pv 02Aug2007               
 POTCAR:    PAW_PBE P 06Sep2000                   
 POTCAR:    PAW_PBE H 15Jun2001                   
 POTCAR:    PAW_PBE C 08Apr2002                   
 POTCAR:    PAW_PBE N 08Apr2002                   
 POTCAR:    PAW_PBE O 08Apr2002                   
 WARNING: For LVTOT=.TRUE., VASP.5.x writes the TOTAL local potential to the
     file LOCPOT. If you want only the Hartree contributions, use LVHAR=.TRUE.
     instead. 

 POTCAR:    PAW_PBE Cr_pv 02Aug2007               
   SHA256 =  c9a7df34d3cdbacf1090e328ef39c0b420964e11c23f63548d1ac9dd218cdba0 Cr_pv/POTCAR          
   COPYR  = (c) Copyright 02Aug2007 Georg Kresse                                                    
   COPYR  = This file is part of the software VASP. Any use, copying, and all other rights are regul
   COPYR  = If you do not have a valid VASP license, you may not use, copy or distribute this file. 
   VRHFIN =Cr : p6d5s1                                                                              
   LEXCH  = PE                                                                                      
   EATOM  =  1647.9177 eV,  121.1185 Ry                                                             
                                                                                                    
   TITEL  = PAW_PBE Cr_pv 02Aug2007                                                                 
   LULTRA =        F    use ultrasoft PP ?                                                          
   IUNSCR =        1    unscreen: 0-lin 1-nonlin 2-no                                               
   RPACOR =    2.080    partial core radius                                                         
   POMASS =   51.996; ZVAL   =   12.000    mass and valenz                                          
   RCORE  =    2.300    outmost cutoff radius                                                       
   RWIGS  =    2.500; RWIGS  =    1.323    wigner-seitz radius (au A)                               
   ENMAX  =  265.681; ENMIN  =  199.261 eV                                                          
   ICORE  =        3    local potential                                                             
   LCOR   =        T    correct aug charges                                                         
   LPAW   =        T    paw PP                                                                      
   EAUG   =  519.424                                                                                
   DEXC   =    0.000                                                                                
   RMAX   =    2.356    core radius for proj-oper                                                   
   RAUG   =    1.300    factor for augmentation sphere                                              
   RDEP   =    2.447    radius for radial grids                                                     
   RDEPT  =    1.882    core radius for aug-charge                                                  
                                                                                                    
   Atomic configuration                                                                             
    8 entries                                                                                       
     n  l   j            E        occ.                                                              
     1  0  0.50     -5880.4963   2.0000                                                             
     2  0  0.50      -667.0865   2.0000                                                             
     2  1  1.50      -560.6250   6.0000                                                             
     3  0  0.50       -73.9860   2.0000                                                             
     3  1  1.50       -45.4378   6.0000                                                             
     3  2  2.50        -2.9137   5.0000                                                             
     4  0  0.50        -4.0071   1.0000                                                             
     4  3  2.50        -1.3606   0.0000                                                             
   Description                                                                                      
     l       E           TYP  RCUT    TYP  RCUT                                                     
     1    -45.4377911     23  2.000                                                                 
     1      1.3605826     23  2.000                                                                 
     2     -2.9136672     23  2.300                                                                 
     2     -4.2742498     23  2.300                                                                 
     0     -4.0071320     23  2.300                                                                 
     0      9.4498803     23  2.300                                                                 
     3      2.7211652     23  2.300                                                                 
  local pseudopotential read in
  partial core-charges read in
  partial kinetic energy density read in
  atomic valenz-charges read in
  non local Contribution for L=           1  read in
    real space projection operators read in
  non local Contribution for L=           1  read in
    real space projection operators read in
  non local Contribution for L=           2  read in
    real space projection operators read in
  non local Contribution for L=           2  read in
    real space projection operators read in
  non local Contribution for L=           0  read in
    real space projection operators read in
  non local Contribution for L=           0  read in
    real space projection operators read in
    PAW grid and wavefunctions read in
 
   number of l-projection  operators is LMAX  =           6
   number of lm-projection operators is LMMAX =          18
 
 POTCAR:    PAW_PBE P 06Sep2000                   
   SHA256 =  df60c54a93efe35c9e85ae94c010c75e9f6960a95d5595d7cdba4096d109af88 P/POTCAR              
   COPYR  = (c) Copyright 06Sep2000 Georg Kresse                                                    
   COPYR  = This file is part of the software VASP. Any use, copying, and all other rights are regul
   COPYR  = If you do not have a valid VASP license, you may not use, copy or distribute this file. 
   VRHFIN =P : s2p3                                                                                 
   LEXCH  = PE                                                                                      
   EATOM  =   176.0430 eV,   12.9388 Ry                                                             
                                                                                                    
   TITEL  = PAW_PBE P 06Sep2000                                                                     
   LULTRA =        F    use ultrasoft PP ?                                                          
   IUNSCR =        1    unscreen: 0-lin 1-nonlin 2-no                                               
   RPACOR =    1.500    partial core radius                                                         
   POMASS =   30.974; ZVAL   =    5.000    mass and valenz                                          
   RCORE  =    1.900    outmost cutoff radius                                                       
   RWIGS  =    2.330; RWIGS  =    1.233    wigner-seitz radius (au A)                               
   ENMAX  =  255.040; ENMIN  =  191.280 eV                                                          
   ICORE  =        2    local potential                                                             
   LCOR   =        T    correct aug charges                                                         
   LPAW   =        T    paw PP                                                                      
   EAUG   =  342.924                                                                                
   DEXC   =    0.000                                                                                
   RMAX   =    1.935    core radius for proj-oper                                                   
   RAUG   =    1.300    factor for augmentation sphere                                              
   RDEP   =    1.931    radius for radial grids                                                     
   RDEPT  =    1.794    core radius for aug-charge                                                  
                                                                                                    
   Atomic configuration                                                                             
    6 entries                                                                                       
     n  l   j            E        occ.                                                              
     1  0  0.50     -2084.0982   2.0000                                                             
     2  0  0.50      -173.9859   2.0000                                                             
     2  1  1.50      -124.4865   6.0000                                                             
     3  0  0.50       -13.9692   2.0000                                                             
     3  1  0.50        -5.5067   3.0000                                                             
     3  2  1.50        -5.4423   0.0000                                                             
   Description                                                                                      
     l       E           TYP  RCUT    TYP  RCUT                                                     
     0    -13.9691527     23  1.900                                                                 
     0    -11.7794650     23  1.900                                                                 
     1     -5.5066937     23  1.900                                                                 
     1     -0.2556953     23  1.900                                                                 
     2     -5.4423304     23  1.900                                                                 
  local pseudopotential read in
  partial core-charges read in
  partial kinetic energy density read in
  atomic valenz-charges read in
  non local Contribution for L=           0  read in
    real space projection operators read in
  non local Contribution for L=           0  read in
    real space projection operators read in
  non local Contribution for L=           1  read in
    real space projection operators read in
  non local Contribution for L=           1  read in
    real space projection operators read in
    PAW grid and wavefunctions read in
 
   number of l-projection  operators is LMAX  =           4
   number of lm-projection operators is LMMAX =           8
 
 POTCAR:    PAW_PBE H 15Jun2001                   
   SHA256 =  030f79b5d3ab3cf0e668861823c8fb652ff669f3e15e46930bd03bfd63a607b6 H/POTCAR              
   COPYR  = (c) Copyright 15Jun2001 Georg Kresse                                                    
   COPYR  = This file is part of the software VASP. Any use, copying, and all other rights are regul
   COPYR  = If you do not have a valid VASP license, you may not use, copy or distribute this file. 
   VRHFIN =H: ultrasoft test                                                                        
   LEXCH  = PE                                                                                      
   EATOM  =    12.4884 eV,    0.9179 Ry                                                             
                                                                                                    
   TITEL  = PAW_PBE H 15Jun2001                                                                     
   LULTRA =        F    use ultrasoft PP ?                                                          
   IUNSCR =        0    unscreen: 0-lin 1-nonlin 2-no                                               
   RPACOR =    0.000    partial core radius                                                         
   POMASS =    1.000; ZVAL   =    1.000    mass and valenz                                          
   RCORE  =    1.100    outmost cutoff radius                                                       
   RWIGS  =    0.700; RWIGS  =    0.370    wigner-seitz radius (au A)                               
   ENMAX  =  250.000; ENMIN  =  200.000 eV                                                          
   RCLOC  =    0.701    cutoff for local pot                                                        
   LCOR   =        T    correct aug charges                                                         
   LPAW   =        T    paw PP                                                                      
   EAUG   =  400.000                                                                                
   RMAX   =    1.123    core radius for proj-oper                                                   
   RAUG   =    1.200    factor for augmentation sphere                                              
   RDEP   =    1.112    radius for radial grids                                                     
   RDEPT  =    0.926    core radius for aug-charge                                                  
                                                                                                    
   Atomic configuration                                                                             
    2 entries                                                                                       
     n  l   j            E        occ.                                                              
     1  0  0.50        -6.4927   1.0000                                                             
     2  1  0.50        -3.4015   0.0000                                                             
   Description                                                                                      
     l       E           TYP  RCUT    TYP  RCUT                                                     
     0     -6.4927494     23  1.100                                                                 
     0      6.8029130     23  1.100                                                                 
     1     -4.0817478     23  1.100                                                                 
  local pseudopotential read in
  atomic valenz-charges read in
  non local Contribution for L=           0  read in
    real space projection operators read in
  non local Contribution for L=           0  read in
    real space projection operators read in
  non local Contribution for L=           1  read in
    real space projection operators read in
    PAW grid and wavefunctions read in
 
   number of l-projection  operators is LMAX  =           3
   number of lm-projection operators is LMMAX =           5
 
 POTCAR:    PAW_PBE C 08Apr2002                   
   SHA256 =  253f7b50bb8d59471dbedb8285d89021f4a42ed1a2c5d38a03a736e69125dd95 C/POTCAR              
   COPYR  = (c) Copyright 08Apr2002 Georg Kresse                                                    
   COPYR  = This file is part of the software VASP. Any use, copying, and all other rights are regul
   COPYR  = If you do not have a valid VASP license, you may not use, copy or distribute this file. 
   VRHFIN =C: s2p2                                                                                  
   LEXCH  = PE                                                                                      
   EATOM  =   147.1560 eV,   10.8157 Ry                                                             
                                                                                                    
   TITEL  = PAW_PBE C 08Apr2002                                                                     
   LULTRA =        F    use ultrasoft PP ?                                                          
   IUNSCR =        1    unscreen: 0-lin 1-nonlin 2-no                                               
   RPACOR =    1.200    partial core radius                                                         
   POMASS =   12.011; ZVAL   =    4.000    mass and valenz                                          
   RCORE  =    1.500    outmost cutoff radius                                                       
   RWIGS  =    1.630; RWIGS  =    0.863    wigner-seitz radius (au A)                               
   ENMAX  =  400.000; ENMIN  =  300.000 eV                                                          
   ICORE  =        2    local potential                                                             
   LCOR   =        T    correct aug charges                                                         
   LPAW   =        T    paw PP                                                                      
   EAUG   =  644.873                                                                                
   DEXC   =    0.000                                                                                
   RMAX   =    1.529    core radius for proj-oper                                                   
   RAUG   =    1.300    factor for augmentation sphere                                              
   RDEP   =    1.501    radius for radial grids                                                     
   RDEPT  =    1.300    core radius for aug-charge                                                  
                                                                                                    
   Atomic configuration                                                                             
    4 entries                                                                                       
     n  l   j            E        occ.                                                              
     1  0  0.50      -273.3789   2.0000                                                             
     2  0  0.50       -13.7508   2.0000                                                             
     2  1  0.50        -5.2854   2.0000                                                             
     3  2  1.50        -5.4423   0.0000                                                             
   Description                                                                                      
     l       E           TYP  RCUT    TYP  RCUT                                                     
     0    -13.7508458     23  1.200                                                                 
     0     -8.2022199     23  1.200                                                                 
     1     -5.2854383     23  1.500                                                                 
     1     34.0145650     23  1.500                                                                 
     2     -5.4423304      7  1.500                                                                 
  local pseudopotential read in
  partial core-charges read in
  partial kinetic energy density read in
  atomic valenz-charges read in
  non local Contribution for L=           0  read in
    real space projection operators read in
  non local Contribution for L=           0  read in
    real space projection operators read in
  non local Contribution for L=           1  read in
    real space projection operators read in
  non local Contribution for L=           1  read in
    real space projection operators read in
    PAW grid and wavefunctions read in
 
   number of l-projection  operators is LMAX  =           4
   number of lm-projection operators is LMMAX =           8
 
 POTCAR:    PAW_PBE N 08Apr2002                   
   SHA256 =  e053789ff3a61a86a1b75d8a110fcc91f86041011e7b0817c7c99e4e8a6349d7 N/POTCAR              
   COPYR  = (c) Copyright 08Apr2002 Georg Kresse                                                    
   COPYR  = This file is part of the software VASP. Any use, copying, and all other rights are regul
   COPYR  = If you do not have a valid VASP license, you may not use, copy or distribute this file. 
   VRHFIN =N: s2p3                                                                                  
   LEXCH  = PE                                                                                      
   EATOM  =   264.5486 eV,   19.4438 Ry                                                             
                                                                                                    
   TITEL  = PAW_PBE N 08Apr2002                                                                     
   LULTRA =        F    use ultrasoft PP ?                                                          
   IUNSCR =        1    unscreen: 0-lin 1-nonlin 2-no                                               
   RPACOR =    1.200    partial core radius                                                         
   POMASS =   14.001; ZVAL   =    5.000    mass and valenz                                          
   RCORE  =    1.500    outmost cutoff radius                                                       
   RWIGS  =    1.400; RWIGS  =    0.741    wigner-seitz radius (au A)                               
   ENMAX  =  400.000; ENMIN  =  300.000 eV                                                          
   ICORE  =        2    local potential                                                             
   LCOR   =        T    correct aug charges                                                         
   LPAW   =        T    paw PP                                                                      
   EAUG   =  627.112                                                                                
   DEXC   =    0.000                                                                                
   RMAX   =    1.529    core radius for proj-oper                                                   
   RAUG   =    1.300    factor for augmentation sphere                                              
   RDEP   =    1.514    radius for radial grids                                                     
   RDEPT  =    1.338    core radius for aug-charge                                                  
                                                                                                    
   Atomic configuration                                                                             
    4 entries                                                                                       
     n  l   j            E        occ.                                                              
     1  0  0.50      -384.7179   2.0000                                                             
     2  0  0.50       -18.5828   2.0000                                                             
     2  1  0.50        -7.0898   3.0000                                                             
     3  2  1.50        -6.8029   0.0000                                                             
   Description                                                                                      
     l       E           TYP  RCUT    TYP  RCUT                                                     
     0    -18.5828119     23  1.200                                                                 
     0    -13.5018863     23  1.200                                                                 
     1     -7.0897853     23  1.500                                                                 
     1      9.5240782     23  1.500                                                                 
     2     -6.8029130      7  1.500                                                                 
  local pseudopotential read in
  partial core-charges read in
  partial kinetic energy density read in
  atomic valenz-charges read in
  non local Contribution for L=           0  read in
    real space projection operators read in
  non local Contribution for L=           0  read in
    real space projection operators read in
  non local Contribution for L=           1  read in
    real space projection operators read in
  non local Contribution for L=           1  read in
    real space projection operators read in
    PAW grid and wavefunctions read in
 
   number of l-projection  operators is LMAX  =           4
   number of lm-projection operators is LMMAX =           8
 
 POTCAR:    PAW_PBE O 08Apr2002                   
   SHA256 =  818f92134a0a090dccd8ba1447fa70422a3b330e708bb4f08108d8ae51209ddf O/POTCAR              
   COPYR  = (c) Copyright 08Apr2002 Georg Kresse                                                    
   COPYR  = This file is part of the software VASP. Any use, copying, and all other rights are regul
   COPYR  = If you do not have a valid VASP license, you may not use, copy or distribute this file. 
   VRHFIN =O: s2p4                                                                                  
   LEXCH  = PE                                                                                      
   EATOM  =   432.3788 eV,   31.7789 Ry                                                             
                                                                                                    
   TITEL  = PAW_PBE O 08Apr2002                                                                     
   LULTRA =        F    use ultrasoft PP ?                                                          
   IUNSCR =        1    unscreen: 0-lin 1-nonlin 2-no                                               
   RPACOR =    1.200    partial core radius                                                         
   POMASS =   16.000; ZVAL   =    6.000    mass and valenz                                          
   RCORE  =    1.520    outmost cutoff radius                                                       
   RWIGS  =    1.550; RWIGS  =    0.820    wigner-seitz radius (au A)                               
   ENMAX  =  400.000; ENMIN  =  300.000 eV                                                          
   ICORE  =        2    local potential                                                             
   LCOR   =        T    correct aug charges                                                         
   LPAW   =        T    paw PP                                                                      
   EAUG   =  605.392                                                                                
   DEXC   =    0.000                                                                                
   RMAX   =    1.553    core radius for proj-oper                                                   
   RAUG   =    1.300    factor for augmentation sphere                                              
   RDEP   =    1.550    radius for radial grids                                                     
   RDEPT  =    1.329    core radius for aug-charge                                                  
                                                                                                    
   Atomic configuration                                                                             
    4 entries                                                                                       
     n  l   j            E        occ.                                                              
     1  0  0.50      -514.6923   2.0000                                                             
     2  0  0.50       -23.9615   2.0000                                                             
     2  1  0.50        -9.0305   4.0000                                                             
     3  2  1.50        -9.5241   0.0000                                                             
   Description                                                                                      
     l       E           TYP  RCUT    TYP  RCUT                                                     
     0    -23.9615318     23  1.200                                                                 
     0     -9.5240782     23  1.200                                                                 
     1     -9.0304911     23  1.520                                                                 
     1      8.1634956     23  1.520                                                                 
     2     -9.5240782      7  1.500                                                                 
  local pseudopotential read in
  partial core-charges read in
  partial kinetic energy density read in
  kinetic energy density of atom read in
  atomic valenz-charges read in
  non local Contribution for L=           0  read in
    real space projection operators read in
  non local Contribution for L=           0  read in
    real space projection operators read in
  non local Contribution for L=           1  read in
    real space projection operators read in
  non local Contribution for L=           1  read in
    real space projection operators read in
    PAW grid and wavefunctions read in
 
   number of l-projection  operators is LMAX  =           4
   number of lm-projection operators is LMMAX =           8
 
 Optimization of the real space projectors (new method)

 maximal supplied QI-value         = 16.25
 optimisation between [QCUT,QGAM] = [ 11.38, 22.75] = [ 36.24,144.96] Ry 
 Optimized for a Real-space Cutoff    1.31 Angstroem

   l    n(q)    QCUT    max X(q) W(low)/X(q) W(high)/X(q)  e(spline) 
   1      8    11.376     3.262    0.15E-03    0.36E-03    0.86E-07
   1      8    11.376     5.741    0.39E-03    0.84E-03    0.21E-06
   2      8    11.376    60.438    0.39E-03    0.55E-03    0.20E-06
   2      8    11.376    55.380    0.40E-03    0.57E-03    0.20E-06
   0      9    11.376    80.273    0.17E-03    0.16E-03    0.48E-07
   0      9    11.376    36.654    0.15E-03    0.14E-03    0.43E-07
 Optimization of the real space projectors (new method)

 maximal supplied QI-value         = 19.84
 optimisation between [QCUT,QGAM] = [ 11.31, 22.82] = [ 35.82,145.81] Ry 
 Optimized for a Real-space Cutoff    1.16 Angstroem

   l    n(q)    QCUT    max X(q) W(low)/X(q) W(high)/X(q)  e(spline) 
   0      8    11.310   160.924    0.33E-03    0.34E-03    0.44E-07
   0      8    11.310   130.086    0.32E-03    0.34E-03    0.44E-07
   1      7    11.310    74.434    0.30E-03    0.36E-03    0.84E-07
   1      7    11.310    49.120    0.29E-03    0.35E-03    0.82E-07
 Optimization of the real space projectors (new method)

 maximal supplied QI-value         = 34.20
 optimisation between [QCUT,QGAM] = [ 11.29, 22.57] = [ 35.68,142.71] Ry 
 Optimized for a Real-space Cutoff    1.16 Angstroem

   l    n(q)    QCUT    max X(q) W(low)/X(q) W(high)/X(q)  e(spline) 
   0      8    11.287    19.460    0.40E-03    0.73E-03    0.16E-06
   0      8    11.287    12.209    0.38E-03    0.70E-03    0.15E-06
   1      7    11.287     4.655    0.22E-03    0.25E-04    0.22E-06
 Optimization of the real space projectors (new method)

 maximal supplied QI-value         = 25.13
 optimisation between [QCUT,QGAM] = [ 11.31, 22.87] = [ 35.82,146.48] Ry 
 Optimized for a Real-space Cutoff    1.00 Angstroem

   l    n(q)    QCUT    max X(q) W(low)/X(q) W(high)/X(q)  e(spline) 
   0      7    11.310   115.676    0.43E-03    0.13E-02    0.19E-06
   0      7    11.310    87.132    0.43E-03    0.13E-02    0.18E-06
   1      6    11.310     4.429    0.42E-03    0.74E-03    0.11E-06
   1      6    11.310     2.733    0.34E-03    0.55E-03    0.92E-07
 Optimization of the real space projectors (new method)

 maximal supplied QI-value         = 25.13
 optimisation between [QCUT,QGAM] = [ 11.31, 22.87] = [ 35.82,146.48] Ry 
 Optimized for a Real-space Cutoff    1.27 Angstroem

   l    n(q)    QCUT    max X(q) W(low)/X(q) W(high)/X(q)  e(spline) 
   0      9    11.310    79.467    0.75E-04    0.16E-03    0.36E-06
   0      9    11.310    66.151    0.74E-04    0.16E-03    0.36E-06
   1      8    11.310    17.416    0.35E-03    0.12E-03    0.95E-06
   1      8    11.310    12.382    0.37E-03    0.13E-03    0.98E-06
 Optimization of the real space projectors (new method)

 maximal supplied QI-value         = 24.76
 optimisation between [QCUT,QGAM] = [ 11.39, 22.77] = [ 36.31,145.25] Ry 
 Optimized for a Real-space Cutoff    1.00 Angstroem

   l    n(q)    QCUT    max X(q) W(low)/X(q) W(high)/X(q)  e(spline) 
   0      7    11.387    20.381    0.39E-03    0.13E-02    0.15E-06
   0      7    11.387    15.268    0.42E-03    0.14E-02    0.17E-06
   1      6    11.387     5.964    0.41E-03    0.11E-02    0.17E-06
   1      6    11.387     5.382    0.39E-03    0.87E-03    0.15E-06
  PAW_PBE Cr_pv 02Aug2007               :
 energy of atom  1       EATOM=-1647.9177
 kinetic energy error for atom=    0.0061 (will be added to EATOM!!)
  PAW_PBE P 06Sep2000                   :
 energy of atom  2       EATOM= -176.0430
 kinetic energy error for atom=    0.0013 (will be added to EATOM!!)
  PAW_PBE H 15Jun2001                   :
 energy of atom  3       EATOM=  -12.4884
 kinetic energy error for atom=    0.0020 (will be added to EATOM!!)
  PAW_PBE C 08Apr2002                   :
 energy of atom  4       EATOM= -147.1560
 kinetic energy error for atom=    0.0076 (will be added to EATOM!!)
  PAW_PBE N 08Apr2002                   :
 energy of atom  5       EATOM= -264.5486
 kinetic energy error for atom=    0.0138 (will be added to EATOM!!)
  PAW_PBE O 08Apr2002                   :
 energy of atom  6       EATOM= -432.3788
 kinetic energy error for atom=    0.0224 (will be added to EATOM!!)
 
 
 POSCAR: Cartesian coordinates
  positions in cartesian coordinates
  No initial velocities read in
 exchange correlation table for  LEXCH =        8
   RHO(1)=    0.500       N(1)  =     2000
   RHO(2)=  100.500       N(2)  =     4000
 


--------------------------------------------------------------------------------------------------------


 ion  position               nearest neighbor table
   1  0.000  0.000  0.358- 160 1.84 157 1.84 155 1.84 162 1.84
   2  0.500  0.500  0.358- 156 1.84 159 1.84 161 1.84 158 1.84
   3  0.082  0.926  0.268- 163 1.51 172 1.55 155 1.58  91 1.81
   4  0.582  0.426  0.268- 164 1.51 171 1.55 156 1.58  92 1.81
   5  0.918  0.074  0.268- 165 1.51 174 1.55 157 1.58  93 1.81
   6  0.418  0.574  0.268- 166 1.51 173 1.55 158 1.58  94 1.81
   7  0.574  0.582  0.268- 167 1.51 176 1.55 159 1.58  95 1.81
   8  0.074  0.082  0.268- 168 1.51 175 1.55 160 1.58  96 1.81
   9  0.426  0.418  0.268- 169 1.51 178 1.55 161 1.58  97 1.81
  10  0.926  0.918  0.268- 170 1.51 177 1.55 162 1.58  98 1.81
  11  0.159  0.923  0.351-  91 1.10
  12  0.659  0.423  0.351-  92 1.10
  13  0.841  0.077  0.351-  93 1.10
  14  0.341  0.577  0.351-  94 1.10
  15  0.577  0.659  0.351-  95 1.10
  16  0.077  0.159  0.351-  96 1.10
  17  0.423  0.341  0.351-  97 1.10
  18  0.923  0.841  0.351-  98 1.10
  19  0.152  0.871  0.278-  91 1.10
  20  0.652  0.371  0.278-  92 1.10
  21  0.848  0.129  0.278-  93 1.10
  22  0.348  0.629  0.278-  94 1.10
  23  0.629  0.652  0.278-  95 1.10
  24  0.129  0.152  0.278-  96 1.10
  25  0.371  0.348  0.278-  97 1.10
  26  0.871  0.848  0.278-  98 1.10
  27  0.581  0.339  0.382-  99 1.10
  28  0.081  0.839  0.382- 100 1.10
  29  0.419  0.661  0.382- 101 1.10
  30  0.919  0.161  0.382- 102 1.10
  31  0.161  0.081  0.382- 103 1.10
  32  0.661  0.581  0.382- 104 1.10
  33  0.839  0.919  0.382- 105 1.10
  34  0.339  0.419  0.382- 106 1.10
  35  0.598  0.387  0.459-  99 1.10
  36  0.098  0.887  0.459- 100 1.10
  37  0.402  0.613  0.459- 101 1.10
  38  0.902  0.113  0.459- 102 1.10
  39  0.113  0.098  0.459- 103 1.10
  40  0.613  0.598  0.459- 104 1.10
  41  0.887  0.902  0.459- 105 1.10
  42  0.387  0.402  0.459- 106 1.10
  43  0.186  0.888  0.513- 107 1.09
  44  0.686  0.388  0.513- 108 1.09
  45  0.814  0.112  0.513- 109 1.09
  46  0.314  0.612  0.513- 110 1.09
  47  0.612  0.686  0.513- 111 1.09
  48  0.112  0.186  0.513- 112 1.09
  49  0.388  0.314  0.513- 113 1.09
  50  0.888  0.814  0.513- 114 1.09
  51  0.251  0.834  0.580- 115 1.09
  52  0.751  0.334  0.580- 116 1.09
  53  0.749  0.166  0.580- 117 1.09
  54  0.249  0.666  0.580- 118 1.09
  55  0.666  0.751  0.580- 119 1.09
  56  0.166  0.251  0.580- 120 1.09
  57  0.334  0.249  0.580- 121 1.09
  58  0.834  0.749  0.580- 122 1.09
  59  0.705  0.243  0.584- 123 1.11
  60  0.205  0.743  0.584- 124 1.11
  61  0.295  0.757  0.584- 125 1.11
  62  0.795  0.257  0.584- 126 1.11
  63  0.257  0.205  0.584- 127 1.11
  64  0.757  0.705  0.584- 128 1.11
  65  0.743  0.795  0.584- 129 1.11
  66  0.243  0.295  0.584- 130 1.11
  67  0.696  0.212  0.412- 131 1.09
  68  0.196  0.712  0.412- 132 1.09
  69  0.304  0.788  0.412- 133 1.09
  70  0.804  0.288  0.412- 134 1.09
  71  0.288  0.196  0.412- 135 1.09
  72  0.788  0.696  0.412- 136 1.09
  73  0.712  0.804  0.412- 137 1.09
  74  0.212  0.304  0.412- 138 1.09
  75  0.633  0.271  0.353- 139 1.09
  76  0.133  0.771  0.353- 140 1.09
  77  0.367  0.729  0.353- 141 1.09
  78  0.867  0.229  0.353- 142 1.09
  79  0.229  0.133  0.353- 143 1.09
  80  0.729  0.633  0.353- 144 1.09
  81  0.771  0.867  0.353- 145 1.09
  82  0.271  0.367  0.353- 146 1.09
  83  0.509  0.390  0.216- 171 1.08 169 1.38
  84  0.009  0.890  0.216- 172 1.08 170 1.38
  85  0.491  0.610  0.216- 173 1.08 167 1.38
  86  0.991  0.110  0.216- 174 1.08 168 1.38
  87  0.110  0.009  0.216- 175 1.08 163 1.38
  88  0.610  0.509  0.216- 176 1.08 164 1.38
  89  0.890  0.991  0.216- 177 1.08 165 1.38
  90  0.390  0.491  0.216- 178 1.08 166 1.38
  91  0.132  0.894  0.328-  11 1.10  19 1.10 100 1.53   3 1.81
  92  0.632  0.394  0.328-  12 1.10  20 1.10  99 1.53   4 1.81
  93  0.868  0.106  0.328-  13 1.10  21 1.10 102 1.53   5 1.81
  94  0.368  0.606  0.328-  14 1.10  22 1.10 101 1.53   6 1.81
  95  0.606  0.632  0.328-  15 1.10  23 1.10 104 1.53   7 1.81
  96  0.106  0.132  0.328-  16 1.10  24 1.10 103 1.53   8 1.81
  97  0.394  0.368  0.328-  17 1.10  25 1.10 106 1.53   9 1.81
  98  0.894  0.868  0.328-  18 1.10  26 1.10 105 1.53  10 1.81
  99  0.613  0.362  0.405-  27 1.10  35 1.10 147 1.45  92 1.53
 100  0.113  0.862  0.405-  28 1.10  36 1.10 148 1.45  91 1.53
 101  0.387  0.638  0.405-  29 1.10  37 1.10 149 1.45  94 1.53
 102  0.887  0.138  0.405-  30 1.10  38 1.10 150 1.45  93 1.53
 103  0.138  0.113  0.405-  31 1.10  39 1.10 151 1.45  96 1.53
 104  0.638  0.613  0.405-  32 1.10  40 1.10 152 1.45  95 1.53
 105  0.862  0.887  0.405-  33 1.10  41 1.10 153 1.45  98 1.53
 106  0.362  0.387  0.405-  34 1.10  42 1.10 154 1.45  97 1.53
 107  0.187  0.848  0.500-  43 1.09 115 1.35 148 1.38
 108  0.687  0.348  0.500-  44 1.09 116 1.35 147 1.38
 109  0.813  0.152  0.500-  45 1.09 117 1.35 150 1.38
 110  0.313  0.652  0.500-  46 1.09 118 1.35 149 1.38
 111  0.652  0.687  0.500-  47 1.09 119 1.35 152 1.38
 112  0.152  0.187  0.500-  48 1.09 120 1.35 151 1.38
 113  0.348  0.313  0.500-  49 1.09 121 1.35 154 1.38
 114  0.848  0.813  0.500-  50 1.09 122 1.35 153 1.38
 115  0.223  0.818  0.537-  51 1.09 107 1.35 124 1.50
 116  0.723  0.318  0.537-  52 1.09 108 1.35 123 1.50
 117  0.777  0.182  0.537-  53 1.09 109 1.35 126 1.50
 118  0.277  0.682  0.537-  54 1.09 110 1.35 125 1.50
 119  0.682  0.723  0.537-  55 1.09 111 1.35 128 1.50
 120  0.182  0.223  0.537-  56 1.09 112 1.35 127 1.50
 121  0.318  0.277  0.537-  57 1.09 113 1.35 130 1.50
 122  0.818  0.777  0.537-  58 1.09 114 1.35 129 1.50
 123  0.723  0.261  0.524-  59 1.11 116 1.50 131 1.50 126 1.57
 124  0.223  0.761  0.524-  60 1.11 115 1.50 132 1.50 125 1.57
 125  0.277  0.739  0.524-  61 1.11 118 1.50 133 1.50 124 1.57
 126  0.777  0.239  0.524-  62 1.11 117 1.50 134 1.50 123 1.57
 127  0.239  0.223  0.524-  63 1.11 120 1.50 135 1.50 130 1.57
 128  0.739  0.723  0.524-  64 1.11 119 1.50 136 1.50 129 1.57
 129  0.761  0.777  0.524-  65 1.11 122 1.50 137 1.50 128 1.57
 130  0.261  0.277  0.524-  66 1.11 121 1.50 138 1.50 127 1.57
 131  0.692  0.248  0.443-  67 1.09 139 1.35 123 1.50
 132  0.192  0.748  0.443-  68 1.09 140 1.35 124 1.50
 133  0.308  0.752  0.443-  69 1.09 141 1.35 125 1.50
 134  0.808  0.252  0.443-  70 1.09 142 1.35 126 1.50
 135  0.252  0.192  0.443-  71 1.09 143 1.35 127 1.50
 136  0.752  0.692  0.443-  72 1.09 144 1.35 128 1.50
 137  0.748  0.808  0.443-  73 1.09 145 1.35 129 1.50
 138  0.248  0.308  0.443-  74 1.09 146 1.35 130 1.50
 139  0.657  0.281  0.409-  75 1.09 131 1.35 147 1.39
 140  0.157  0.781  0.409-  76 1.09 132 1.35 148 1.39
 141  0.343  0.719  0.409-  77 1.09 133 1.35 149 1.39
 142  0.843  0.219  0.409-  78 1.09 134 1.35 150 1.39
 143  0.219  0.157  0.409-  79 1.09 135 1.35 151 1.39
 144  0.719  0.657  0.409-  80 1.09 136 1.35 152 1.39
 145  0.781  0.843  0.409-  81 1.09 137 1.35 153 1.39
 146  0.281  0.343  0.409-  82 1.09 138 1.35 154 1.39
 147  0.651  0.329  0.443- 108 1.38 139 1.39  99 1.45
 148  0.151  0.829  0.443- 107 1.38 140 1.39 100 1.45
 149  0.349  0.671  0.443- 110 1.38 141 1.39 101 1.45
 150  0.849  0.171  0.443- 109 1.38 142 1.39 102 1.45
 151  0.171  0.151  0.443- 112 1.38 143 1.39 103 1.45
 152  0.671  0.651  0.443- 111 1.38 144 1.39 104 1.45
 153  0.829  0.849  0.443- 114 1.38 145 1.39 105 1.45
 154  0.329  0.349  0.443- 113 1.38 146 1.39 106 1.45
 155  0.055  0.958  0.343-   3 1.58   1 1.84
 156  0.555  0.458  0.343-   4 1.58   2 1.84
 157  0.945  0.042  0.343-   5 1.58   1 1.84
 158  0.445  0.542  0.343-   6 1.58   2 1.84
 159  0.542  0.555  0.343-   7 1.58   2 1.84
 160  0.042  0.055  0.343-   8 1.58   1 1.84
 161  0.458  0.445  0.343-   9 1.58   2 1.84
 162  0.958  0.945  0.343-  10 1.58   1 1.84
 163  0.102  0.959  0.195-  87 1.38   3 1.51
 164  0.602  0.459  0.195-  88 1.38   4 1.51
 165  0.898  0.041  0.195-  89 1.38   5 1.51
 166  0.398  0.541  0.195-  90 1.38   6 1.51
 167  0.541  0.602  0.195-  85 1.38   7 1.51
 168  0.041  0.102  0.195-  86 1.38   8 1.51
 169  0.459  0.398  0.195-  83 1.38   9 1.51
 170  0.959  0.898  0.195-  84 1.38  10 1.51
 171  0.548  0.382  0.237-  83 1.08   4 1.55
 172  0.048  0.882  0.237-  84 1.08   3 1.55
 173  0.452  0.618  0.237-  85 1.08   6 1.55
 174  0.952  0.118  0.237-  86 1.08   5 1.55
 175  0.118  0.048  0.237-  87 1.08   8 1.55
 176  0.618  0.548  0.237-  88 1.08   7 1.55
 177  0.882  0.952  0.237-  89 1.08  10 1.55
 178  0.382  0.452  0.237-  90 1.08   9 1.55
 
  LATTYP: Found a simple tetragonal cell.
 ALAT       =    26.5149612427
 C/A-ratio  =     0.5657183453
  
  Lattice vectors:
  
 A1 = (  26.5149612427,   0.0000000471,   0.0000000000)
 A2 = (  -0.0000000471,  26.5149612427,   0.0000000000)
 A3 = (   0.0000000000,   0.0000000000,  15.0000000000)


Analysis of symmetry for initial positions (statically):
=====================================================================
 Subroutine PRICEL returns following result:
 
  LATTYP: Found a simple tetragonal cell.
 ALAT       =    18.7489088977
 C/A-ratio  =     0.8000465564
  
  Lattice vectors:
  
 A1 = (  13.2574806451, -13.2574805977,   0.0000000000)
 A2 = (  13.2574805980,  13.2574806450,   0.0000000000)
 A3 = (   0.0000000000,   0.0000000000,  15.0000000000)
 
   2 primitive cells build up your supercell.
 

 Routine SETGRP: Setting up the symmetry group for a 
 simple tetragonal supercell.


 Subroutine GETGRP returns: Found  4 space group operations
 (whereof  4 operations were pure point group operations)
 out of a pool of 16 trial point group operations.


The static configuration has the point symmetry     .


Analysis of symmetry for dynamics (positions and initial velocities):
=====================================================================
 Subroutine PRICEL returns following result:
 
  LATTYP: Found a simple tetragonal cell.
 ALAT       =    18.7489088977
 C/A-ratio  =     0.8000465564
  
  Lattice vectors:
  
 A1 = (  13.2574806451, -13.2574805977,   0.0000000000)
 A2 = (  13.2574805980,  13.2574806450,   0.0000000000)
 A3 = (   0.0000000000,   0.0000000000,  15.0000000000)
 
   2 primitive cells build up your supercell.
 

 Routine SETGRP: Setting up the symmetry group for a 
 simple tetragonal supercell.


 Subroutine GETGRP returns: Found  4 space group operations
 (whereof  4 operations were pure point group operations)
 out of a pool of 16 trial point group operations.


The dynamic configuration has the point symmetry     .


Analysis of structural, dynamic, and magnetic symmetry:
=====================================================================
 Subroutine PRICEL returns:
 Original cell was already a primitive cell.
 

 Routine SETGRP: Setting up the symmetry group for a 
 simple tetragonal supercell.


 Subroutine GETGRP returns: Found  4 space group operations
 (whereof  2 operations were pure point group operations)
 out of a pool of 16 trial point group operations.


The overall configuration has the point symmetry C_2 .
 The point group associated with its full space group is C_2 .


 Subroutine INISYM returns: Found  4 space group operations
 (whereof  2 operations are pure point group operations),
 and found     1 'primitive' translations


----------------------------------------------------------------------------------------

                                     Primitive cell                                     

  volume of cell :   10545.6475

  direct lattice vectors                    reciprocal lattice vectors
    26.514961243  0.000000047  0.000000000     0.037714556  0.000000000  0.000000000
    -0.000000047 26.514961243  0.000000000    -0.000000000  0.037714556  0.000000000
     0.000000000  0.000000000 15.000000000     0.000000000  0.000000000  0.066666667

  length of vectors
    26.514961243 26.514961243 15.000000000     0.037714556  0.037714556  0.066666667

  position of ions in fractional coordinates (direct lattice)
     0.000000000  0.000000000  0.357778048
     0.500000000  0.500000000  0.357778048
     0.082232116  0.926076496  0.268472677
     0.582232116  0.426076496  0.268472677
     0.917767884  0.073923504  0.268472677
     0.417767885  0.573923504  0.268472677
     0.573923504  0.582232116  0.268472677
     0.073923504  0.082232116  0.268472677
     0.426076496  0.417767884  0.268472677
     0.926076496  0.917767885  0.268472677
     0.159234079  0.923338554  0.350534744
     0.659234079  0.423338554  0.350534744
     0.840765921  0.076661446  0.350534744
     0.340765921  0.576661446  0.350534744
     0.576661446  0.659234079  0.350534744
     0.076661446  0.159234079  0.350534744
     0.423338554  0.340765921  0.350534744
     0.923338554  0.840765921  0.350534744
     0.151782504  0.870640351  0.278467839
     0.651782504  0.370640351  0.278467839
     0.848217496  0.129359649  0.278467839
     0.348217496  0.629359649  0.278467839
     0.629359649  0.651782504  0.278467839
     0.129359649  0.151782504  0.278467839
     0.370640351  0.348217496  0.278467839
     0.870640351  0.848217496  0.278467839
     0.581112769  0.338992209  0.382458087
     0.081112769  0.838992209  0.382458087
     0.418887231  0.661007791  0.382458087
     0.918887231  0.161007791  0.382458087
     0.161007791  0.081112769  0.382458087
     0.661007791  0.581112769  0.382458087
     0.838992209  0.918887231  0.382458087
     0.338992209  0.418887231  0.382458087
     0.598124740  0.386910744  0.458727722
     0.098124740  0.886910744  0.458727722
     0.401875260  0.613089256  0.458727722
     0.901875260  0.113089256  0.458727722
     0.113089256  0.098124740  0.458727722
     0.613089256  0.598124740  0.458727722
     0.886910744  0.901875260  0.458727722
     0.386910744  0.401875260  0.458727722
     0.185566243  0.887965019  0.513250984
     0.685566243  0.387965019  0.513250984
     0.814433757  0.112034981  0.513250984
     0.314433757  0.612034981  0.513250984
     0.612034981  0.685566243  0.513250984
     0.112034981  0.185566243  0.513250984
     0.387965019  0.314433757  0.513250984
     0.887965019  0.814433757  0.513250984
     0.251157227  0.834381585  0.580334377
     0.751157227  0.334381585  0.580334377
     0.748842773  0.165618415  0.580334377
     0.248842773  0.665618415  0.580334377
     0.665618415  0.751157227  0.580334377
     0.165618415  0.251157227  0.580334377
     0.334381585  0.248842773  0.580334377
     0.834381585  0.748842773  0.580334377
     0.705471883  0.243271630  0.583977818
     0.205471883  0.743271630  0.583977818
     0.294528117  0.756728370  0.583977818
     0.794528117  0.256728370  0.583977818
     0.256728370  0.205471883  0.583977818
     0.756728370  0.705471883  0.583977818
     0.743271630  0.794528117  0.583977818
     0.243271630  0.294528117  0.583977818
     0.696400477  0.211663077  0.411864569
     0.196400477  0.711663077  0.411864569
     0.303599523  0.788336923  0.411864569
     0.803599523  0.288336923  0.411864569
     0.288336923  0.196400477  0.411864569
     0.788336923  0.696400477  0.411864569
     0.711663077  0.803599523  0.411864569
     0.211663077  0.303599523  0.411864569
     0.633185385  0.271206101  0.353168795
     0.133185385  0.771206101  0.353168795
     0.366814615  0.728793899  0.353168795
     0.866814615  0.228793899  0.353168795
     0.228793899  0.133185385  0.353168795
     0.728793899  0.633185385  0.353168795
     0.771206101  0.866814615  0.353168795
     0.271206101  0.366814615  0.353168795
     0.509488321  0.389684166  0.215798820
     0.009488321  0.889684166  0.215798820
     0.490511679  0.610315834  0.215798820
     0.990511679  0.110315834  0.215798820
     0.110315834  0.009488321  0.215798820
     0.610315834  0.509488321  0.215798820
     0.889684166  0.990511679  0.215798820
     0.389684166  0.490511679  0.215798820
     0.132358651  0.894483740  0.327732932
     0.632358651  0.394483740  0.327732932
     0.867641349  0.105516260  0.327732932
     0.367641349  0.605516260  0.327732932
     0.605516260  0.632358651  0.327732932
     0.105516260  0.132358651  0.327732932
     0.394483740  0.367641349  0.327732932
     0.894483740  0.867641349  0.327732932
     0.612684363  0.362434321  0.405469993
     0.112684363  0.862434321  0.405469993
     0.387315637  0.637565679  0.405469993
     0.887315637  0.137565679  0.405469993
     0.137565679  0.112684363  0.405469993
     0.637565679  0.612684363  0.405469993
     0.862434321  0.887315637  0.405469993
     0.362434321  0.387315637  0.405469993
     0.187193271  0.847552884  0.500446199
     0.687193271  0.347552884  0.500446199
     0.812806729  0.152447116  0.500446199
     0.312806729  0.652447116  0.500446199
     0.652447116  0.687193271  0.500446199
     0.152447116  0.187193271  0.500446199
     0.347552884  0.312806729  0.500446199
     0.847552884  0.812806729  0.500446199
     0.222726606  0.817553711  0.537033852
     0.722726606  0.317553711  0.537033852
     0.777273394  0.182446289  0.537033852
     0.277273394  0.682446289  0.537033852
     0.682446289  0.722726606  0.537033852
     0.182446289  0.222726606  0.537033852
     0.317553711  0.277273394  0.537033852
     0.817553711  0.777273394  0.537033852
     0.722623392  0.261340141  0.524135698
     0.222623392  0.761340141  0.524135698
     0.277376608  0.738659859  0.524135698
     0.777376608  0.238659859  0.524135698
     0.238659859  0.222623392  0.524135698
     0.738659859  0.722623392  0.524135698
     0.761340141  0.777376608  0.524135698
     0.261340141  0.277376608  0.524135698
     0.691750454  0.248481045  0.443085204
     0.191750454  0.748481045  0.443085204
     0.308249546  0.751518955  0.443085204
     0.808249546  0.251518955  0.443085204
     0.251518955  0.191750454  0.443085204
     0.751518955  0.691750454  0.443085204
     0.748481045  0.808249546  0.443085204
     0.248481045  0.308249546  0.443085204
     0.657349218  0.280815778  0.409468429
     0.157349218  0.780815778  0.409468429
     0.342650782  0.719184222  0.409468429
     0.842650782  0.219184222  0.409468429
     0.219184222  0.157349218  0.409468429
     0.719184222  0.657349218  0.409468429
     0.780815778  0.842650782  0.409468429
     0.280815778  0.342650782  0.409468429
     0.650590116  0.329051893  0.443368457
     0.150590116  0.829051893  0.443368457
     0.349409884  0.670948107  0.443368457
     0.849409884  0.170948107  0.443368457
     0.170948107  0.150590116  0.443368457
     0.670948107  0.650590116  0.443368457
     0.829051893  0.849409884  0.443368457
     0.329051893  0.349409884  0.443368457
     0.055186779  0.958494710  0.342850416
     0.555186779  0.458494710  0.342850416
     0.944813221  0.041505290  0.342850416
     0.444813221  0.541505290  0.342850416
     0.541505290  0.555186779  0.342850416
     0.041505290  0.055186779  0.342850416
     0.458494710  0.444813221  0.342850416
     0.958494710  0.944813221  0.342850416
     0.101945598  0.959498074  0.194827480
     0.601945598  0.459498074  0.194827480
     0.898054402  0.040501926  0.194827480
     0.398054402  0.540501926  0.194827480
     0.540501926  0.601945598  0.194827480
     0.040501926  0.101945598  0.194827480
     0.459498074  0.398054402  0.194827480
     0.959498074  0.898054402  0.194827480
     0.547765990  0.382093554  0.237417949
     0.047765990  0.882093554  0.237417949
     0.452234010  0.617906446  0.237417949
     0.952234010  0.117906446  0.237417949
     0.117906446  0.047765990  0.237417949
     0.617906446  0.547765990  0.237417949
     0.882093554  0.952234010  0.237417949
     0.382093554  0.452234010  0.237417949

  ion indices of the primitive-cell ions
   primitive index   ion index
                 1           1
                 2           2
                 3           3
                 4           4
                 5           5
                 6           6
                 7           7
                 8           8
                 9           9
                10          10
                11          11
                12          12
                13          13
                14          14
                15          15
                16          16
                17          17
                18          18
                19          19
                20          20
                21          21
                22          22
                23          23
                24          24
                25          25
                26          26
                27          27
                28          28
                29          29
                30          30
                31          31
                32          32
                33          33
                34          34
                35          35
                36          36
                37          37
                38          38
                39          39
                40          40
                41          41
                42          42
                43          43
                44          44
                45          45
                46          46
                47          47
                48          48
                49          49
                50          50
                51          51
                52          52
                53          53
                54          54
                55          55
                56          56
                57          57
                58          58
                59          59
                60          60
                61          61
                62          62
                63          63
                64          64
                65          65
                66          66
                67          67
                68          68
                69          69
                70          70
                71          71
                72          72
                73          73
                74          74
                75          75
                76          76
                77          77
                78          78
                79          79
                80          80
                81          81
                82          82
                83          83
                84          84
                85          85
                86          86
                87          87
                88          88
                89          89
                90          90
                91          91
                92          92
                93          93
                94          94
                95          95
                96          96
                97          97
                98          98
                99          99
               100         100
               101         101
               102         102
               103         103
               104         104
               105         105
               106         106
               107         107
               108         108
               109         109
               110         110
               111         111
               112         112
               113         113
               114         114
               115         115
               116         116
               117         117
               118         118
               119         119
               120         120
               121         121
               122         122
               123         123
               124         124
               125         125
               126         126
               127         127
               128         128
               129         129
               130         130
               131         131
               132         132
               133         133
               134         134
               135         135
               136         136
               137         137
               138         138
               139         139
               140         140
               141         141
               142         142
               143         143
               144         144
               145         145
               146         146
               147         147
               148         148
               149         149
               150         150
               151         151
               152         152
               153         153
               154         154
               155         155
               156         156
               157         157
               158         158
               159         159
               160         160
               161         161
               162         162
               163         163
               164         164
               165         165
               166         166
               167         167
               168         168
               169         169
               170         170
               171         171
               172         172
               173         173
               174         174
               175         175
               176         176
               177         177
               178         178

----------------------------------------------------------------------------------------

 
 
 KPOINTS: K-Path Generated by VASPKIT.            

Interpolating k-points between supplied coordinates.

 Line segments in fractional coordinates (reciprocal lattice):
    0.500000  0.500000  0.000000  ...  0.500000  0.000000  0.000000
    0.500000  0.000000  0.000000  ...  1.000000  0.000000  0.000000
    1.000000  0.000000  0.000000  ...  0.500000  0.500000  0.000000
    0.500000  0.500000  0.000000  ...  1.000000  1.000000  0.000000
    1.000000  1.000000  0.000000  ...  1.000000  0.500000  0.000000
    1.000000  0.500000  0.000000  ...  0.500000  0.500000  0.000000

 Generated    10 points on each line segment, for a total of     60 k-points:

 Following reciprocal coordinates:
            Coordinates               Weight
  0.500000  0.500000  0.000000      0.016667
  0.500000  0.444444  0.000000      0.016667
  0.500000  0.388889  0.000000      0.016667
  0.500000  0.333333  0.000000      0.016667
  0.500000  0.277778  0.000000      0.016667
  0.500000  0.222222  0.000000      0.016667
  0.500000  0.166667  0.000000      0.016667
  0.500000  0.111111  0.000000      0.016667
  0.500000  0.055556  0.000000      0.016667
  0.500000  0.000000  0.000000      0.016667
  0.500000  0.000000  0.000000      0.016667
  0.555556  0.000000  0.000000      0.016667
  0.611111  0.000000  0.000000      0.016667
  0.666667  0.000000  0.000000      0.016667
  0.722222  0.000000  0.000000      0.016667
  0.777778  0.000000  0.000000      0.016667
  0.833333  0.000000  0.000000      0.016667
  0.888889  0.000000  0.000000      0.016667
  0.944444  0.000000  0.000000      0.016667
  1.000000  0.000000  0.000000      0.016667
  1.000000  0.000000  0.000000      0.016667
  0.944444  0.055556  0.000000      0.016667
  0.888889  0.111111  0.000000      0.016667
  0.833333  0.166667  0.000000      0.016667
  0.777778  0.222222  0.000000      0.016667
  0.722222  0.277778  0.000000      0.016667
  0.666667  0.333333  0.000000      0.016667
  0.611111  0.388889  0.000000      0.016667
  0.555556  0.444444  0.000000      0.016667
  0.500000  0.500000  0.000000      0.016667
  0.500000  0.500000  0.000000      0.016667
  0.555556  0.555556  0.000000      0.016667
  0.611111  0.611111  0.000000      0.016667
  0.666667  0.666667  0.000000      0.016667
  0.722222  0.722222  0.000000      0.016667
  0.777778  0.777778  0.000000      0.016667
  0.833333  0.833333  0.000000      0.016667
  0.888889  0.888889  0.000000      0.016667
  0.944444  0.944444  0.000000      0.016667
  1.000000  1.000000  0.000000      0.016667
  1.000000  1.000000  0.000000      0.016667
  1.000000  0.944444  0.000000      0.016667
  1.000000  0.888889  0.000000      0.016667
  1.000000  0.833333  0.000000      0.016667
  1.000000  0.777778  0.000000      0.016667
  1.000000  0.722222  0.000000      0.016667
  1.000000  0.666667  0.000000      0.016667
  1.000000  0.611111  0.000000      0.016667
  1.000000  0.555556  0.000000      0.016667
  1.000000  0.500000  0.000000      0.016667
  1.000000  0.500000  0.000000      0.016667
  0.944444  0.500000  0.000000      0.016667
  0.888889  0.500000  0.000000      0.016667
  0.833333  0.500000  0.000000      0.016667
  0.777778  0.500000  0.000000      0.016667
  0.722222  0.500000  0.000000      0.016667
  0.666667  0.500000  0.000000      0.016667
  0.611111  0.500000  0.000000      0.016667
  0.555556  0.500000  0.000000      0.016667
  0.500000  0.500000  0.000000      0.016667

 Following cartesian coordinates:
            Coordinates               Weight
  0.018857  0.018857  0.000000      0.016667
  0.018857  0.016762  0.000000      0.016667
  0.018857  0.014667  0.000000      0.016667
  0.018857  0.012572  0.000000      0.016667
  0.018857  0.010476  0.000000      0.016667
  0.018857  0.008381  0.000000      0.016667
  0.018857  0.006286  0.000000      0.016667
  0.018857  0.004191  0.000000      0.016667
  0.018857  0.002095  0.000000      0.016667
  0.018857  0.000000  0.000000      0.016667
  0.018857  0.000000  0.000000      0.016667
  0.020953  0.000000  0.000000      0.016667
  0.023048  0.000000  0.000000      0.016667
  0.025143  0.000000  0.000000      0.016667
  0.027238  0.000000  0.000000      0.016667
  0.029334  0.000000  0.000000      0.016667
  0.031429  0.000000  0.000000      0.016667
  0.033524  0.000000  0.000000      0.016667
  0.035619  0.000000  0.000000      0.016667
  0.037715  0.000000  0.000000      0.016667
  0.037715  0.000000  0.000000      0.016667
  0.035619  0.002095  0.000000      0.016667
  0.033524  0.004191  0.000000      0.016667
  0.031429  0.006286  0.000000      0.016667
  0.029334  0.008381  0.000000      0.016667
  0.027238  0.010476  0.000000      0.016667
  0.025143  0.012572  0.000000      0.016667
  0.023048  0.014667  0.000000      0.016667
  0.020953  0.016762  0.000000      0.016667
  0.018857  0.018857  0.000000      0.016667
  0.018857  0.018857  0.000000      0.016667
  0.020953  0.020953  0.000000      0.016667
  0.023048  0.023048  0.000000      0.016667
  0.025143  0.025143  0.000000      0.016667
  0.027238  0.027238  0.000000      0.016667
  0.029334  0.029334  0.000000      0.016667
  0.031429  0.031429  0.000000      0.016667
  0.033524  0.033524  0.000000      0.016667
  0.035619  0.035619  0.000000      0.016667
  0.037715  0.037715  0.000000      0.016667
  0.037715  0.037715  0.000000      0.016667
  0.037715  0.035619  0.000000      0.016667
  0.037715  0.033524  0.000000      0.016667
  0.037715  0.031429  0.000000      0.016667
  0.037715  0.029334  0.000000      0.016667
  0.037715  0.027238  0.000000      0.016667
  0.037715  0.025143  0.000000      0.016667
  0.037715  0.023048  0.000000      0.016667
  0.037715  0.020953  0.000000      0.016667
  0.037715  0.018857  0.000000      0.016667
  0.037715  0.018857  0.000000      0.016667
  0.035619  0.018857  0.000000      0.016667
  0.033524  0.018857  0.000000      0.016667
  0.031429  0.018857  0.000000      0.016667
  0.029334  0.018857  0.000000      0.016667
  0.027238  0.018857  0.000000      0.016667
  0.025143  0.018857  0.000000      0.016667
  0.023048  0.018857  0.000000      0.016667
  0.020953  0.018857  0.000000      0.016667
  0.018857  0.018857  0.000000      0.016667
 


--------------------------------------------------------------------------------------------------------




 Dimension of arrays:
   k-points           NKPTS =     60   k-points in BZ     NKDIM =     60   number of bands    NBANDS=    368
   number of dos      NEDOS =    301   number of ions     NIONS =    178
   non local maximal  LDIM  =      6   non local SUM 2l+1 LMDIM =     18
   total plane-waves  NPLWV = ******
   max r-space proj   IRMAX =   1737   max aug-charges    IRDMAX=   6435
   dimension x,y,z NGX =   150 NGY =  150 NGZ =   84
   dimension x,y,z NGXF=   300 NGYF=  300 NGZF=  168
   support grid    NGXF=   300 NGYF=  300 NGZF=  168
   ions per type =               2   8  80  56   8  24
   NGX,Y,Z   is equivalent  to a cutoff of   9.40,  9.40,  9.31 a.u.
   NGXF,Y,Z  is equivalent  to a cutoff of  18.81, 18.81, 18.62 a.u.

 SYSTEM =  unknown system                          
 POSCAR =  Cartesian coordinates                   

 Startparameter for this run:
   NWRITE =      2    write-flag & timer
   PREC   = normal    normal or accurate (medium, high low for compatibility)
   ISTART =      0    job   : 0-new  1-cont  2-samecut
   ICHARG =     11    charge: 1-file 2-atom 10-const
   ISPIN  =      2    spin polarized calculation?
   LNONCOLLINEAR =      F non collinear calculations
   LSORBIT =      F    spin-orbit coupling
   INIWAV =      1    electr: 0-lowe 1-rand  2-diag
   LASPH  =      F    aspherical Exc in radial PAW
 Electronic Relaxation 1
   ENCUT  =  500.0 eV  36.75 Ry    6.06 a.u.  48.34 48.34 27.35*2*pi/ulx,y,z
   ENINI  =  500.0     initial cutoff
   ENAUG  =  644.9 eV  augmentation charge cutoff
   NELM   =    200;   NELMIN=  2; NELMDL=  0     # of ELM steps 
   EDIFF  = 0.1E-04   stopping-criterion for ELM
   LREAL  =      T    real-space projection
   NLSPLINE    = F    spline interpolate recip. space projectors
   LCOMPAT=      F    compatible to vasp.4.4
   GGA_COMPAT  = T    GGA compatible to vasp.4.4-vasp.4.6
   LMAXPAW     = -100 max onsite density
   LMAXMIX     =    4 max onsite mixed and CHGCAR
   VOSKOWN=      0    Vosko Wilk Nusair interpolation
   ROPT   =   -0.00050  -0.00050  -0.00050  -0.00050
   ROPT   =   -0.00050  -0.00050
 Ionic relaxation
   EDIFFG = -.1E-01   stopping-criterion for IOM
   NSW    =      0    number of steps for IOM
   NBLOCK =      1;   KBLOCK =      1    inner block; outer block 
   IBRION =     -1    ionic relax: 0-MD 1-quasi-New 2-CG
   NFREE  =      0    steps in history (QN), initial steepest desc. (CG)
   ISIF   =      2    stress and relaxation
   IWAVPR =     10    prediction:  0-non 1-charg 2-wave 3-comb
   ISYM   =      2    0-nonsym 1-usesym 2-fastsym
   LCORR  =      T    Harris-Foulkes like correction to forces

   POTIM  = 0.5000    time-step for ionic-motion
   TEIN   =    0.0    initial temperature
   TEBEG  =    0.0;   TEEND  =   0.0 temperature during run
   SMASS  =  -3.00    Nose mass-parameter (am)
   estimated Nose-frequenzy (Omega)   =  0.10E-29 period in steps = 0.13E+47 mass=  -0.161E-25a.u.
   SCALEE = 1.0000    scale energy and forces
   NPACO  =    256;   APACO  = 10.0  distance and # of slots for P.C.
   PSTRESS=    0.0 pullay stress

  Mass of Ions in am
   POMASS =  52.00 30.97  1.00 12.01 14.00 16.00
  Ionic Valenz
   ZVAL   =  12.00  5.00  1.00  4.00  5.00  6.00
  Atomic Wigner-Seitz radii
   RWIGS  =  -1.00 -1.00 -1.00 -1.00 -1.00 -1.00
  virtual crystal weights 
   VCA    =   1.00  1.00  1.00  1.00  1.00  1.00
   NELECT =     552.0000    total number of electrons
   NUPDOWN=      -1.0000    fix difference up-down

 DOS related values:
   EMIN   =  10.00;   EMAX   =-10.00  energy-range for DOS
   EFERMI =   0.00
   ISMEAR =     1;   SIGMA  =   0.20  broadening in eV -4-tet -1-fermi 0-gaus

 Electronic relaxation 2 (details)
   IALGO  =     68    algorithm
   LDIAG  =      T    sub-space diagonalisation (order eigenvalues)
   LSUBROT=      F    optimize rotation matrix (better conditioning)
   TURBO    =      0    0=normal 1=particle mesh
   IRESTART =      0    0=no restart 2=restart with 2 vectors
   NREBOOT  =      0    no. of reboots
   NMIN     =      0    reboot dimension
   EREF     =   0.00    reference energy to select bands
   IMIX   =      4    mixing-type and parameters
     AMIX     =   0.20;   BMIX     =  0.00
     AMIX_MAG =   0.80;   BMIX_MAG =  0.00
     AMIN     =   0.10
     WC   =   100.;   INIMIX=   1;  MIXPRE=   1;  MAXMIX= -45

 Intra band minimization:
   WEIMIN = 0.0000     energy-eigenvalue tresh-hold
   EBREAK =  0.68E-08  absolut break condition
   DEPER  =   0.30     relativ break condition  

   TIME   =   0.40     timestep for ELM

  volume/ion in A,a.u.               =      59.25       399.81
  Fermi-wavevector in a.u.,A,eV,Ry     =   0.612393  1.157255  5.102525  0.375025
  Thomas-Fermi vector in A             =   1.668664
 
 Write flags
   LWAVE        =      F    write WAVECAR
   LDOWNSAMPLE  =      F    k-point downsampling of WAVECAR
   LCHARG       =      F    write CHGCAR
   LVTOT        =      T    write LOCPOT, total local potential
   LVHAR        =      F    write LOCPOT, Hartree potential only
   LELF         =      F    write electronic localiz. function (ELF)
   LORBIT       =     11    0 simple, 1 ext, 2 COOP (PROOUT), +10 PAW based schemes


 Dipole corrections
   LMONO  =      F    monopole corrections only (constant potential shift)
   LDIPOL =      F    correct potential (dipole corrections)
   IDIPOL =      0    1-x, 2-y, 3-z, 4-all directions 
   EPSILON=  1.0000000 bulk dielectric constant

 LDA+U is selected, type is set to LDAUTYPE =  2
   angular momentum for each species LDAUL =     2   -1   -1   -1   -1   -1
   U (eV)           for each species LDAUU =   3.0  0.0  0.0  0.0  0.0  0.0
   J (eV)           for each species LDAUJ =   1.0  0.0  0.0  0.0  0.0  0.0
 Exchange correlation treatment:
   GGA     =    --    GGA type
   LEXCH   =     8    internal setting for exchange type
   LIBXC   =     F    Libxc                    
   VOSKOWN =     0    Vosko Wilk Nusair interpolation
   LHFCALC =     F    Hartree Fock is set to
   LHFONE  =     F    Hartree Fock one center treatment
   AEXX    =    0.0000 exact exchange contribution

 Linear response parameters
   LEPSILON=     F    determine dielectric tensor
   LRPA    =     F    only Hartree local field effects (RPA)
   LNABLA  =     F    use nabla operator in PAW spheres
   LVEL    =     F    velocity operator in full k-point grid
   CSHIFT  =0.1000    complex shift for real part using Kramers Kronig
   OMEGAMAX=  -1.0    maximum frequency
   DEG_THRESHOLD= 0.2000000E-02 threshold for treating states as degnerate
   RTIME   =   -0.100 relaxation time in fs
  (WPLASMAI=    0.000 imaginary part of plasma frequency in eV, 0.658/RTIME)
   DFIELD  = 0.0000000 0.0000000 0.0000000 field for delta impulse in time
 
  Optional k-point grid parameters
   LKPOINTS_OPT  =     F    use optional k-point grid
   KPOINTS_OPT_MODE=     1    mode for optional k-point grid
 
 Orbital magnetization related:
   ORBITALMAG=     F  switch on orbital magnetization
   LCHIMAG   =     F  perturbation theory with respect to B field
   DQ        =  0.001000  dq finite difference perturbation B field
   LLRAUG    =     F  two centre corrections for induced B field



--------------------------------------------------------------------------------------------------------


 Static calculation
 charge density and potential remain constant during run
 spin polarized calculation
 RMM-DIIS sequential band-by-band and
  variant of blocked Davidson during initial phase
 perform sub-space diagonalisation
    before iterative eigenvector-optimisation
 no mixing
 using additional bands           92
 real space projection scheme for non local part
 use partial core corrections
 calculate Harris-corrections to forces 
   (improved forces if not selfconsistent)
 use gradient corrections 
 WARNING: stress and forces are not correct
  (second derivative of E(xc) not defined)
 use of overlap-Matrix (Vanderbilt PP)
 Methfessel and Paxton  Order N= 1 SIGMA  =   0.20


--------------------------------------------------------------------------------------------------------


  energy-cutoff  :      500.00
  volume of cell :    10545.65
      direct lattice vectors                 reciprocal lattice vectors
    26.514961243  0.000000047  0.000000000     0.037714556  0.000000000  0.000000000
    -0.000000047 26.514961243  0.000000000    -0.000000000  0.037714556  0.000000000
     0.000000000  0.000000000 15.000000000     0.000000000  0.000000000  0.066666667

  length of vectors
    26.514961243 26.514961243 15.000000000     0.037714556  0.037714556  0.066666667


 
 k-points in units of 2pi/SCALE and weight: K-Path Generated by VASPKIT.            
   0.01885728  0.01885728  0.00000000       0.017
   0.01885728  0.01676203  0.00000000       0.017
   0.01885728  0.01466677  0.00000000       0.017
   0.01885728  0.01257152  0.00000000       0.017
   0.01885728  0.01047627  0.00000000       0.017
   0.01885728  0.00838101  0.00000000       0.017
   0.01885728  0.00628576  0.00000000       0.017
   0.01885728  0.00419051  0.00000000       0.017
   0.01885728  0.00209525  0.00000000       0.017
   0.01885728  0.00000000  0.00000000       0.017
   0.01885728  0.00000000  0.00000000       0.017
   0.02095253  0.00000000  0.00000000       0.017
   0.02304778  0.00000000  0.00000000       0.017
   0.02514304  0.00000000  0.00000000       0.017
   0.02723829  0.00000000  0.00000000       0.017
   0.02933354  0.00000000  0.00000000       0.017
   0.03142880  0.00000000  0.00000000       0.017
   0.03352405  0.00000000  0.00000000       0.017
   0.03561930  0.00000000  0.00000000       0.017
   0.03771456  0.00000000  0.00000000       0.017
   0.03771456  0.00000000  0.00000000       0.017
   0.03561930  0.00209525  0.00000000       0.017
   0.03352405  0.00419051  0.00000000       0.017
   0.03142880  0.00628576  0.00000000       0.017
   0.02933354  0.00838101  0.00000000       0.017
   0.02723829  0.01047627  0.00000000       0.017
   0.02514304  0.01257152  0.00000000       0.017
   0.02304778  0.01466677  0.00000000       0.017
   0.02095253  0.01676203  0.00000000       0.017
   0.01885728  0.01885728  0.00000000       0.017
   0.01885728  0.01885728  0.00000000       0.017
   0.02095253  0.02095253  0.00000000       0.017
   0.02304778  0.02304778  0.00000000       0.017
   0.02514304  0.02514304  0.00000000       0.017
   0.02723829  0.02723829  0.00000000       0.017
   0.02933354  0.02933354  0.00000000       0.017
   0.03142880  0.03142880  0.00000000       0.017
   0.03352405  0.03352405  0.00000000       0.017
   0.03561930  0.03561930  0.00000000       0.017
   0.03771456  0.03771456  0.00000000       0.017
   0.03771456  0.03771456  0.00000000       0.017
   0.03771456  0.03561930  0.00000000       0.017
   0.03771456  0.03352405  0.00000000       0.017
   0.03771456  0.03142880  0.00000000       0.017
   0.03771456  0.02933354  0.00000000       0.017
   0.03771456  0.02723829  0.00000000       0.017
   0.03771456  0.02514304  0.00000000       0.017
   0.03771456  0.02304778  0.00000000       0.017
   0.03771456  0.02095253  0.00000000       0.017
   0.03771456  0.01885728  0.00000000       0.017
   0.03771456  0.01885728  0.00000000       0.017
   0.03561930  0.01885728  0.00000000       0.017
   0.03352405  0.01885728  0.00000000       0.017
   0.03142880  0.01885728  0.00000000       0.017
   0.02933354  0.01885728  0.00000000       0.017
   0.02723829  0.01885728  0.00000000       0.017
   0.02514304  0.01885728  0.00000000       0.017
   0.02304778  0.01885728  0.00000000       0.017
   0.02095253  0.01885728  0.00000000       0.017
   0.01885728  0.01885728  0.00000000       0.017
 
 k-points in reciprocal lattice and weights: K-Path Generated by VASPKIT.            
   0.50000000  0.50000000  0.00000000       0.017
   0.50000000  0.44444444  0.00000000       0.017
   0.50000000  0.38888889  0.00000000       0.017
   0.50000000  0.33333333  0.00000000       0.017
   0.50000000  0.27777778  0.00000000       0.017
   0.50000000  0.22222222  0.00000000       0.017
   0.50000000  0.16666667  0.00000000       0.017
   0.50000000  0.11111111  0.00000000       0.017
   0.50000000  0.05555556  0.00000000       0.017
   0.50000000  0.00000000  0.00000000       0.017
   0.50000000  0.00000000  0.00000000       0.017
   0.55555556  0.00000000  0.00000000       0.017
   0.61111111  0.00000000  0.00000000       0.017
   0.66666667  0.00000000  0.00000000       0.017
   0.72222222  0.00000000  0.00000000       0.017
   0.77777778  0.00000000  0.00000000       0.017
   0.83333333  0.00000000  0.00000000       0.017
   0.88888889  0.00000000  0.00000000       0.017
   0.94444444  0.00000000  0.00000000       0.017
   1.00000000  0.00000000  0.00000000       0.017
   1.00000000  0.00000000  0.00000000       0.017
   0.94444444  0.05555556  0.00000000       0.017
   0.88888889  0.11111111  0.00000000       0.017
   0.83333333  0.16666667  0.00000000       0.017
   0.77777778  0.22222222  0.00000000       0.017
[...]
      4.53268      3.99289      6.65053         0.116443      0.198151      0.063838
     17.79016     17.25037      6.65053         0.118345      0.199574      0.064862
     21.98228     22.52207      6.65053        -0.116443     -0.198151      0.063838
      8.72480      9.26459      6.65053        -0.118345     -0.199574      0.064862
      1.46328     25.41445      5.14276         1.268494     -1.224051      0.081041
     14.72076     12.15697      5.14276         1.266609     -1.222757      0.078661
     25.05169      1.10051      5.14276        -1.268494      1.224051      0.081041
     11.79421     14.35799      5.14276        -1.266609      1.222757      0.078661
     14.35799     14.72076      5.14276         1.224051      1.268494      0.081041
      1.10051      1.46328      5.14276         1.222757      1.266609      0.078661
     12.15697     11.79421      5.14276        -1.224051     -1.268494      0.081041
     25.41445     25.05169      5.14276        -1.222757     -1.266609      0.078661
      2.70308     25.44105      2.92241         0.242282     -0.053970     -0.182741
     15.96056     12.18357      2.92241         0.242081     -0.054239     -0.182366
     23.81188      1.07391      2.92241        -0.242282      0.053970     -0.182741
     10.55440     14.33139      2.92241        -0.242081      0.054239     -0.182366
     14.33139     15.96056      2.92241         0.053970      0.242282     -0.182741
      1.07391      2.70308      2.92241         0.054239      0.242081     -0.182366
     12.18357     10.55440      2.92241        -0.053970     -0.242282     -0.182741
     25.44105     23.81188      2.92241        -0.054239     -0.242081     -0.182366
     14.52399     10.13120      3.56127         0.095307     -0.185436     -0.057137
      1.26651     23.38868      3.56127         0.095117     -0.186223     -0.057093
     11.99097     16.38377      3.56127        -0.095307      0.185436     -0.057137
     25.24845      3.12628      3.56127        -0.095117      0.186223     -0.057093
      3.12628      1.26651      3.56127         0.185436      0.095307     -0.057137
     16.38377     14.52399      3.56127         0.186223      0.095117     -0.057093
     23.38868     25.24845      3.56127        -0.185436     -0.095307     -0.057137
     10.13120     11.99097      3.56127        -0.186223     -0.095117     -0.057093
 -----------------------------------------------------------------------------------
    total drift:                                0.000002      0.000000      0.393603


--------------------------------------------------------------------------------------------------------



  FREE ENERGIE OF THE ION-ELECTRON SYSTEM (eV)
  ---------------------------------------------------
  free  energy   TOTEN  =     -1103.17397735 eV

  energy  without entropy=    -1103.19765338  energy(sigma->0) =    -1103.18186936
 


--------------------------------------------------------------------------------------------------------


    POTLOK:  cpu time      0.5544: real time      0.5895


--------------------------------------------------------------------------------------------------------


     LOOP+:  cpu time   7875.8513: real time   7881.1158
    4ORBIT:  cpu time      0.0000: real time      0.0000



 total charge

# of ion       s       p       d       tot
------------------------------------------
    1        0.356   6.376   4.070  10.802
    2        0.356   6.376   4.070  10.802
    3        0.931   1.504   0.000   2.435
    4        0.931   1.504   0.000   2.435
    5        0.931   1.504   0.000   2.435
    6        0.931   1.504   0.000   2.435
    7        0.931   1.504   0.000   2.435
    8        0.931   1.504   0.000   2.435
    9        0.931   1.504   0.000   2.435
   10        0.931   1.504   0.000   2.435
   11        0.636   0.044   0.000   0.680
   12        0.636   0.044   0.000   0.680
   13        0.636   0.044   0.000   0.680
   14        0.636   0.044   0.000   0.680
   15        0.636   0.044   0.000   0.680
   16        0.636   0.044   0.000   0.680
   17        0.636   0.044   0.000   0.680
   18        0.636   0.044   0.000   0.680
   19        0.635   0.044   0.000   0.679
   20        0.635   0.044   0.000   0.679
   21        0.635   0.044   0.000   0.679
   22        0.635   0.044   0.000   0.679
   23        0.635   0.044   0.000   0.679
   24        0.635   0.044   0.000   0.679
   25        0.635   0.044   0.000   0.679
   26        0.635   0.044   0.000   0.679
   27        0.646   0.045   0.000   0.691
   28        0.646   0.045   0.000   0.691
   29        0.646   0.045   0.000   0.691
   30        0.646   0.045   0.000   0.691
   31        0.646   0.045   0.000   0.691
   32        0.646   0.045   0.000   0.691
   33        0.646   0.045   0.000   0.691
   34        0.646   0.045   0.000   0.691
   35        0.646   0.044   0.000   0.690
   36        0.646   0.044   0.000   0.690
   37        0.646   0.044   0.000   0.690
   38        0.646   0.044   0.000   0.690
   39        0.646   0.044   0.000   0.690
   40        0.646   0.044   0.000   0.690
   41        0.646   0.044   0.000   0.690
   42        0.646   0.044   0.000   0.690
   43        0.645   0.046   0.000   0.691
   44        0.645   0.046   0.000   0.691
   45        0.645   0.046   0.000   0.691
   46        0.645   0.046   0.000   0.691
   47        0.645   0.046   0.000   0.691
   48        0.645   0.046   0.000   0.691
   49        0.645   0.046   0.000   0.691
   50        0.645   0.046   0.000   0.691
   51        0.642   0.046   0.000   0.688
   52        0.642   0.046   0.000   0.688
   53        0.642   0.046   0.000   0.688
   54        0.642   0.046   0.000   0.688
   55        0.642   0.046   0.000   0.688
   56        0.642   0.046   0.000   0.688
   57        0.642   0.046   0.000   0.688
   58        0.642   0.046   0.000   0.688
   59        0.636   0.041   0.000   0.677
   60        0.636   0.041   0.000   0.677
   61        0.636   0.041   0.000   0.677
   62        0.636   0.041   0.000   0.677
   63        0.636   0.041   0.000   0.677
   64        0.636   0.041   0.000   0.677
   65        0.636   0.041   0.000   0.677
   66        0.636   0.041   0.000   0.677
   67        0.641   0.047   0.000   0.687
   68        0.641   0.047   0.000   0.687
   69        0.641   0.047   0.000   0.687
   70        0.641   0.047   0.000   0.687
   71        0.641   0.047   0.000   0.687
   72        0.641   0.047   0.000   0.687
   73        0.641   0.047   0.000   0.687
   74        0.641   0.047   0.000   0.687
   75        0.643   0.046   0.000   0.689
   76        0.643   0.046   0.000   0.689
   77        0.643   0.046   0.000   0.689
   78        0.643   0.046   0.000   0.689
   79        0.643   0.046   0.000   0.689
   80        0.643   0.046   0.000   0.689
   81        0.643   0.046   0.000   0.689
   82        0.643   0.046   0.000   0.689
   83        0.481   0.105   0.000   0.586
   84        0.481   0.105   0.000   0.586
   85        0.481   0.105   0.000   0.586
   86        0.481   0.105   0.000   0.586
   87        0.481   0.105   0.000   0.586
   88        0.481   0.105   0.000   0.586
   89        0.481   0.105   0.000   0.586
   90        0.481   0.105   0.000   0.586
   91        0.843   1.780   0.000   2.623
   92        0.843   1.780   0.000   2.623
   93        0.843   1.780   0.000   2.623
   94        0.843   1.780   0.000   2.623
   95        0.843   1.780   0.000   2.623
   96        0.843   1.780   0.000   2.623
   97        0.843   1.780   0.000   2.623
   98        0.843   1.780   0.000   2.623
   99        0.834   1.751   0.000   2.585
  100        0.834   1.751   0.000   2.585
  101        0.834   1.751   0.000   2.585
  102        0.834   1.751   0.000   2.585
  103        0.834   1.751   0.000   2.585
  104        0.834   1.751   0.000   2.585
  105        0.834   1.751   0.000   2.585
  106        0.834   1.751   0.000   2.585
  107        0.867   1.766   0.000   2.634
  108        0.867   1.766   0.000   2.634
  109        0.867   1.766   0.000   2.634
  110        0.867   1.766   0.000   2.634
  111        0.867   1.766   0.000   2.634
  112        0.867   1.766   0.000   2.634
  113        0.867   1.766   0.000   2.634
  114        0.867   1.766   0.000   2.634
  115        0.863   1.766   0.000   2.629
  116        0.863   1.766   0.000   2.630
  117        0.863   1.766   0.000   2.629
  118        0.863   1.766   0.000   2.630
  119        0.863   1.766   0.000   2.629
  120        0.863   1.766   0.000   2.630
  121        0.863   1.766   0.000   2.629
  122        0.863   1.766   0.000   2.630
  123        0.830   1.743   0.000   2.573
  124        0.830   1.743   0.000   2.573
  125        0.830   1.743   0.000   2.573
  126        0.830   1.743   0.000   2.573
  127        0.830   1.743   0.000   2.573
  128        0.830   1.743   0.000   2.573
  129        0.830   1.743   0.000   2.573
  130        0.830   1.743   0.000   2.573
  131        0.863   1.766   0.000   2.628
  132        0.863   1.765   0.000   2.628
  133        0.863   1.766   0.000   2.628
  134        0.863   1.765   0.000   2.628
  135        0.863   1.766   0.000   2.628
  136        0.863   1.765   0.000   2.628
  137        0.863   1.766   0.000   2.628
  138        0.863   1.765   0.000   2.628
  139        0.867   1.763   0.000   2.630
  140        0.867   1.763   0.000   2.630
  141        0.867   1.763   0.000   2.630
  142        0.867   1.763   0.000   2.630
  143        0.867   1.763   0.000   2.630
  144        0.867   1.763   0.000   2.630
  145        0.867   1.763   0.000   2.630
  146        0.867   1.763   0.000   2.630
  147        1.204   2.757   0.000   3.961
  148        1.204   2.755   0.000   3.959
  149        1.204   2.757   0.000   3.961
  150        1.204   2.755   0.000   3.959
  151        1.204   2.757   0.000   3.961
  152        1.204   2.755   0.000   3.959
  153        1.204   2.757   0.000   3.961
  154        1.204   2.755   0.000   3.959
  155        1.566   3.592   0.000   5.158
  156        1.566   3.592   0.000   5.158
  157        1.566   3.592   0.000   5.158
  158        1.566   3.592   0.000   5.158
  159        1.566   3.592   0.000   5.158
  160        1.566   3.592   0.000   5.158
  161        1.566   3.592   0.000   5.158
  162        1.566   3.592   0.000   5.158
  163        1.577   3.571   0.000   5.147
  164        1.577   3.571   0.000   5.147
  165        1.577   3.571   0.000   5.147
  166        1.577   3.571   0.000   5.147
  167        1.577   3.571   0.000   5.147
  168        1.577   3.571   0.000   5.147
  169        1.577   3.571   0.000   5.147
  170        1.577   3.571   0.000   5.147
  171        1.566   3.630   0.000   5.196
  172        1.566   3.630   0.000   5.196
  173        1.566   3.630   0.000   5.196
  174        1.566   3.630   0.000   5.196
  175        1.566   3.630   0.000   5.196
  176        1.566   3.630   0.000   5.196
  177        1.566   3.630   0.000   5.196
  178        1.566   3.630   0.000   5.196
--------------------------------------------------
tot        153.191 235.931   8.140 397.262



 magnetization (x)

# of ion       s       p       d       tot
------------------------------------------
    1        0.112   0.030   2.774   2.916
    2       -0.112  -0.030  -2.774  -2.916
    3        0.001   0.001   0.000   0.002
    4       -0.001  -0.001   0.000  -0.002
    5        0.001   0.001   0.000   0.002
    6       -0.001  -0.001   0.000  -0.002
    7       -0.001  -0.001   0.000  -0.002
    8        0.001   0.001   0.000   0.002
    9       -0.001  -0.001   0.000  -0.002
   10        0.001   0.001   0.000   0.002
   11       -0.000   0.000   0.000  -0.000
   12       -0.000   0.000   0.000  -0.000
   13       -0.000   0.000   0.000  -0.000
   14       -0.000   0.000   0.000  -0.000
   15        0.000  -0.000   0.000   0.000
   16        0.000  -0.000   0.000   0.000
   17        0.000  -0.000   0.000   0.000
   18        0.000  -0.000   0.000   0.000
   19       -0.000   0.000   0.000  -0.000
   20       -0.000   0.000   0.000  -0.000
   21       -0.000   0.000   0.000  -0.000
   22       -0.000   0.000   0.000  -0.000
   23        0.000  -0.000   0.000   0.000
   24        0.000  -0.000   0.000   0.000
   25        0.000  -0.000   0.000   0.000
   26        0.000  -0.000   0.000   0.000
   27        0.001  -0.000   0.000   0.001
   28        0.001  -0.000   0.000   0.001
   29        0.001  -0.000   0.000   0.001
   30        0.001  -0.000   0.000   0.001
   31       -0.001   0.000   0.000  -0.001
   32       -0.001   0.000   0.000  -0.001
   33       -0.001   0.000   0.000  -0.001
   34       -0.001   0.000   0.000  -0.001
   35        0.002  -0.000   0.000   0.002
   36        0.002   0.000   0.000   0.002
   37        0.002  -0.000   0.000   0.002
   38        0.002   0.000   0.000   0.002
   39       -0.002   0.000   0.000  -0.002
   40       -0.002  -0.000   0.000  -0.002
   41       -0.002   0.000   0.000  -0.002
   42       -0.002  -0.000   0.000  -0.002
   43        0.000  -0.000   0.000   0.000
   44        0.000  -0.000   0.000   0.000
   45        0.000  -0.000   0.000   0.000
   46        0.000  -0.000   0.000   0.000
   47       -0.000   0.000   0.000  -0.000
   48       -0.000   0.000   0.000  -0.000
   49       -0.000   0.000   0.000  -0.000
   50       -0.000   0.000   0.000  -0.000
   51       -0.001   0.001   0.000  -0.000
   52       -0.001   0.001   0.000  -0.000
   53       -0.001   0.001   0.000  -0.000
   54       -0.001   0.001   0.000  -0.000
   55        0.001  -0.001   0.000   0.000
   56        0.001  -0.001   0.000   0.000
   57        0.001  -0.001   0.000   0.000
   58        0.001  -0.001   0.000   0.000
   59        0.014  -0.000   0.000   0.014
   60        0.014  -0.000   0.000   0.014
   61        0.014  -0.000   0.000   0.014
   62        0.014  -0.000   0.000   0.014
   63       -0.014   0.000   0.000  -0.014
   64       -0.014   0.000   0.000  -0.014
   65       -0.014   0.000   0.000  -0.014
   66       -0.014   0.000   0.000  -0.014
   67       -0.001   0.001   0.000  -0.001
   68       -0.001   0.001   0.000  -0.001
   69       -0.001   0.001   0.000  -0.001
   70       -0.001   0.001   0.000  -0.001
   71        0.001  -0.001   0.000   0.001
   72        0.001  -0.001   0.000   0.001
   73        0.001  -0.001   0.000   0.001
   74        0.001  -0.001   0.000   0.001
   75        0.001  -0.000   0.000   0.000
   76        0.001  -0.000   0.000   0.001
   77        0.001  -0.000   0.000   0.000
   78        0.001  -0.000   0.000   0.001
   79       -0.001   0.000   0.000  -0.000
   80       -0.001   0.000   0.000  -0.001
   81       -0.001   0.000   0.000  -0.000
   82       -0.001   0.000   0.000  -0.001
   83        0.000   0.000   0.000   0.000
   84       -0.000  -0.000   0.000  -0.000
   85        0.000   0.000   0.000   0.000
   86       -0.000  -0.000   0.000  -0.000
   87       -0.000  -0.000   0.000  -0.000
   88        0.000   0.000   0.000   0.000
   89       -0.000  -0.000   0.000  -0.000
   90        0.000   0.000   0.000   0.000
   91        0.001   0.004   0.000   0.004
   92        0.001   0.006   0.000   0.007
   93        0.001   0.004   0.000   0.004
   94        0.001   0.006   0.000   0.007
   95       -0.001  -0.004   0.000  -0.004
   96       -0.001  -0.006   0.000  -0.007
   97       -0.001  -0.004   0.000  -0.004
   98       -0.001  -0.006   0.000  -0.007
   99       -0.001  -0.001   0.000  -0.002
  100       -0.000  -0.001   0.000  -0.001
  101       -0.001  -0.001   0.000  -0.002
  102       -0.000  -0.001   0.000  -0.001
  103        0.001   0.001   0.000   0.002
  104        0.000   0.001   0.000   0.001
  105        0.001   0.001   0.000   0.002
  106        0.000   0.001   0.000   0.001
  107       -0.001  -0.003   0.000  -0.004
  108       -0.001  -0.003   0.000  -0.003
  109       -0.001  -0.003   0.000  -0.004
  110       -0.001  -0.003   0.000  -0.003
  111        0.001   0.003   0.000   0.004
  112        0.001   0.003   0.000   0.003
  113        0.001   0.003   0.000   0.004
  114        0.001   0.003   0.000   0.003
  115        0.002   0.036   0.000   0.038
  116        0.002   0.035   0.000   0.037
  117        0.002   0.036   0.000   0.038
  118        0.002   0.035   0.000   0.037
  119       -0.002  -0.036   0.000  -0.038
  120       -0.002  -0.035   0.000  -0.037
  121       -0.002  -0.036   0.000  -0.038
  122       -0.002  -0.035   0.000  -0.037
  123        0.001   0.010   0.000   0.010
  124        0.001   0.010   0.000   0.010
  125        0.001   0.010   0.000   0.010
  126        0.001   0.010   0.000   0.010
  127       -0.001  -0.010   0.000  -0.010
  128       -0.001  -0.010   0.000  -0.010
  129       -0.001  -0.010   0.000  -0.010
  130       -0.001  -0.010   0.000  -0.010
  131        0.002   0.037   0.000   0.039
  132        0.002   0.037   0.000   0.039
  133        0.002   0.037   0.000   0.039
  134        0.002   0.037   0.000   0.039
  135       -0.002  -0.037   0.000  -0.039
  136       -0.002  -0.037   0.000  -0.039
  137       -0.002  -0.037   0.000  -0.039
  138       -0.002  -0.037   0.000  -0.039
  139       -0.001  -0.006   0.000  -0.007
  140       -0.001  -0.007   0.000  -0.007
  141       -0.001  -0.006   0.000  -0.007
  142       -0.001  -0.007   0.000  -0.007
  143        0.001   0.006   0.000   0.007
  144        0.001   0.007   0.000   0.007
  145        0.001   0.006   0.000   0.007
  146        0.001   0.007   0.000   0.007
  147        0.002   0.064   0.000   0.067
  148        0.002   0.065   0.000   0.067
  149        0.002   0.064   0.000   0.067
  150        0.002   0.065   0.000   0.067
  151       -0.002  -0.064   0.000  -0.067
  152       -0.002  -0.065   0.000  -0.067
  153       -0.002  -0.064   0.000  -0.067
  154       -0.002  -0.065   0.000  -0.067
  155       -0.002  -0.010   0.000  -0.012
  156        0.003   0.010   0.000   0.013
  157       -0.002  -0.010   0.000  -0.012
  158        0.003   0.010   0.000   0.013
  159        0.002   0.010   0.000   0.012
  160       -0.003  -0.010   0.000  -0.013
  161        0.002   0.010   0.000   0.012
  162       -0.003  -0.010   0.000  -0.013
  163        0.000   0.003   0.000   0.003
  164       -0.000   0.001   0.000   0.001
  165        0.000   0.003   0.000   0.003
  166       -0.000   0.001   0.000   0.001
  167       -0.000  -0.003   0.000  -0.003
  168        0.000  -0.001   0.000  -0.001
  169       -0.000  -0.003   0.000  -0.003
  170        0.000  -0.001   0.000  -0.001
  171       -0.000   0.004   0.000   0.004
  172        0.000  -0.004   0.000  -0.004
  173       -0.000   0.004   0.000   0.004
  174        0.000  -0.004   0.000  -0.004
  175        0.000  -0.004   0.000  -0.004
  176       -0.000   0.004   0.000   0.004
  177        0.000  -0.004   0.000  -0.004
  178       -0.000   0.004   0.000   0.004
--------------------------------------------------
tot         -0.000   0.000   0.000   0.000
 

 total amount of memory used by VASP MPI-rank0  4115097. kBytes
=======================================================================

   base      :      30000. kBytes
   nonlr-proj:       6067. kBytes
   fftplans  :      28778. kBytes
   grid      :      83865. kBytes
   one-center:        466. kBytes
   wavefun   :    3965921. kBytes
 
  
  
 General timing and accounting informations for this job:
 ========================================================
  
                  Total CPU time used (sec):     8508.380
                            User time (sec):     8183.484
                          System time (sec):      324.896
                         Elapsed time (sec):     8519.261
  
                   Maximum memory used (kb):     4866440.
                   Average memory used (kb):          N/A
  
                          Minor page faults:      2315050
                          Major page faults:            4
                 Voluntary context switches:       337386
