 vasp.6.3.2 27Jun22 (build Aug 02 2025 14:55:03) complex                        
  
 executed on             LinuxIFC date 2025.11.27  20:04:47
 running on   48 total cores
 distrk:  each k-point on   48 cores,    1 groups
 distr:  one band on NCORE=  12 cores,    4 groups


--------------------------------------------------------------------------------------------------------


 INCAR:
   PREC = Normal
   ENCUT = 500
   IBRION = -1
   ISPIN = 2
   MAGMOM = 5 -5 4*1 4*-1 4*1 4*-1 4*1 4*-1 4*1 4*-1 4*1 4*-1 4*1 4*-1 4*1 4*-1 4*1 4*-1 4*1 4*-1 4*1 4*-1 4*1 4*-1 4*1 4*-1 4*1 4*-1 4*1 4*-1 4*1 4*-1 4*1 4*-1 4*1 4*-1 4*1 4*-1 4*1 4*-1 4*1 4*-1 4*1 4*-1 4*1 4*-1 4*1 4*-1 4*1 4*-1 4*1 4*-1 4*1 4*-1 4*1 4*-1 4*1 4*-1 4*1 4*-1 4*1 4*-1 4*1 4*-1 4*1 4*-1 4*1 4*-1 4*1 4*-1 4*1 4*-1 4*1 4*-1 4*1 4*-1 4*1 4*-1 4*1 4*-1
   NSW = 0
   NELM = 200
   ISIF = 2
   EDIFF = 1E-5
   EDIFFG = -0.01
   ALGO = Fast
   ISTART = 1
   ICHARG = 11
   LREAL = Auto
   LWAVE = .F.
   LCHARG = .F.
   LVTOT = .T.
   NPAR = 4
   AMIX = 0.2
   BMIX = 0.0001
   AMIX_MAG = 0.8
   BMIX_MAG = 0.0001
   LDAU = .TRUE.
   LDAUTYPE = 2
   LDAUL = 2 -1 -1 -1 -1 -1
   LDAUU = 3.0 0 0 0 0 0
   LDAUJ = 1.0 0 0 0 0 0
   LMAXMIX = 4
   LORBIT = 11

 POTCAR:    PAW_PBE Cr_pv 02Aug2007               
 POTCAR:    PAW_PBE N 08Apr2002                   
 POTCAR:    PAW_PBE C 08Apr2002                   
 POTCAR:    PAW_PBE S 06Sep2000                   
 POTCAR:    PAW_PBE O 08Apr2002                   
 POTCAR:    PAW_PBE H 15Jun2001                   
 WARNING: For LVTOT=.TRUE., VASP.5.x writes the TOTAL local potential to the
     file LOCPOT. If you want only the Hartree contributions, use LVHAR=.TRUE.
     instead. 

 POTCAR:    PAW_PBE Cr_pv 02Aug2007               
   SHA256 =  c9a7df34d3cdbacf1090e328ef39c0b420964e11c23f63548d1ac9dd218cdba0 Cr_pv/POTCAR          
   COPYR  = (c) Copyright 02Aug2007 Georg Kresse                                                    
   COPYR  = This file is part of the software VASP. Any use, copying, and all other rights are regul
   COPYR  = If you do not have a valid VASP license, you may not use, copy or distribute this file. 
   VRHFIN =Cr : p6d5s1                                                                              
   LEXCH  = PE                                                                                      
   EATOM  =  1647.9177 eV,  121.1185 Ry                                                             
                                                                                                    
   TITEL  = PAW_PBE Cr_pv 02Aug2007                                                                 
   LULTRA =        F    use ultrasoft PP ?                                                          
   IUNSCR =        1    unscreen: 0-lin 1-nonlin 2-no                                               
   RPACOR =    2.080    partial core radius                                                         
   POMASS =   51.996; ZVAL   =   12.000    mass and valenz                                          
   RCORE  =    2.300    outmost cutoff radius                                                       
   RWIGS  =    2.500; RWIGS  =    1.323    wigner-seitz radius (au A)                               
   ENMAX  =  265.681; ENMIN  =  199.261 eV                                                          
   ICORE  =        3    local potential                                                             
   LCOR   =        T    correct aug charges                                                         
   LPAW   =        T    paw PP                                                                      
   EAUG   =  519.424                                                                                
   DEXC   =    0.000                                                                                
   RMAX   =    2.356    core radius for proj-oper                                                   
   RAUG   =    1.300    factor for augmentation sphere                                              
   RDEP   =    2.447    radius for radial grids                                                     
   RDEPT  =    1.882    core radius for aug-charge                                                  
                                                                                                    
   Atomic configuration                                                                             
    8 entries                                                                                       
     n  l   j            E        occ.                                                              
     1  0  0.50     -5880.4963   2.0000                                                             
     2  0  0.50      -667.0865   2.0000                                                             
     2  1  1.50      -560.6250   6.0000                                                             
     3  0  0.50       -73.9860   2.0000                                                             
     3  1  1.50       -45.4378   6.0000                                                             
     3  2  2.50        -2.9137   5.0000                                                             
     4  0  0.50        -4.0071   1.0000                                                             
     4  3  2.50        -1.3606   0.0000                                                             
   Description                                                                                      
     l       E           TYP  RCUT    TYP  RCUT                                                     
     1    -45.4377911     23  2.000                                                                 
     1      1.3605826     23  2.000                                                                 
     2     -2.9136672     23  2.300                                                                 
     2     -4.2742498     23  2.300                                                                 
     0     -4.0071320     23  2.300                                                                 
     0      9.4498803     23  2.300                                                                 
     3      2.7211652     23  2.300                                                                 
  local pseudopotential read in
  partial core-charges read in
  partial kinetic energy density read in
  atomic valenz-charges read in
  non local Contribution for L=           1  read in
    real space projection operators read in
  non local Contribution for L=           1  read in
    real space projection operators read in
  non local Contribution for L=           2  read in
    real space projection operators read in
  non local Contribution for L=           2  read in
    real space projection operators read in
  non local Contribution for L=           0  read in
    real space projection operators read in
  non local Contribution for L=           0  read in
    real space projection operators read in
    PAW grid and wavefunctions read in
 
   number of l-projection  operators is LMAX  =           6
   number of lm-projection operators is LMMAX =          18
 
 POTCAR:    PAW_PBE N 08Apr2002                   
   SHA256 =  e053789ff3a61a86a1b75d8a110fcc91f86041011e7b0817c7c99e4e8a6349d7 N/POTCAR              
   COPYR  = (c) Copyright 08Apr2002 Georg Kresse                                                    
   COPYR  = This file is part of the software VASP. Any use, copying, and all other rights are regul
   COPYR  = If you do not have a valid VASP license, you may not use, copy or distribute this file. 
   VRHFIN =N: s2p3                                                                                  
   LEXCH  = PE                                                                                      
   EATOM  =   264.5486 eV,   19.4438 Ry                                                             
                                                                                                    
   TITEL  = PAW_PBE N 08Apr2002                                                                     
   LULTRA =        F    use ultrasoft PP ?                                                          
   IUNSCR =        1    unscreen: 0-lin 1-nonlin 2-no                                               
   RPACOR =    1.200    partial core radius                                                         
   POMASS =   14.001; ZVAL   =    5.000    mass and valenz                                          
   RCORE  =    1.500    outmost cutoff radius                                                       
   RWIGS  =    1.400; RWIGS  =    0.741    wigner-seitz radius (au A)                               
   ENMAX  =  400.000; ENMIN  =  300.000 eV                                                          
   ICORE  =        2    local potential                                                             
   LCOR   =        T    correct aug charges                                                         
   LPAW   =        T    paw PP                                                                      
   EAUG   =  627.112                                                                                
   DEXC   =    0.000                                                                                
   RMAX   =    1.529    core radius for proj-oper                                                   
   RAUG   =    1.300    factor for augmentation sphere                                              
   RDEP   =    1.514    radius for radial grids                                                     
   RDEPT  =    1.338    core radius for aug-charge                                                  
                                                                                                    
   Atomic configuration                                                                             
    4 entries                                                                                       
     n  l   j            E        occ.                                                              
     1  0  0.50      -384.7179   2.0000                                                             
     2  0  0.50       -18.5828   2.0000                                                             
     2  1  0.50        -7.0898   3.0000                                                             
     3  2  1.50        -6.8029   0.0000                                                             
   Description                                                                                      
     l       E           TYP  RCUT    TYP  RCUT                                                     
     0    -18.5828119     23  1.200                                                                 
     0    -13.5018863     23  1.200                                                                 
     1     -7.0897853     23  1.500                                                                 
     1      9.5240782     23  1.500                                                                 
     2     -6.8029130      7  1.500                                                                 
  local pseudopotential read in
  partial core-charges read in
  partial kinetic energy density read in
  atomic valenz-charges read in
  non local Contribution for L=           0  read in
    real space projection operators read in
  non local Contribution for L=           0  read in
    real space projection operators read in
  non local Contribution for L=           1  read in
    real space projection operators read in
  non local Contribution for L=           1  read in
    real space projection operators read in
    PAW grid and wavefunctions read in
 
   number of l-projection  operators is LMAX  =           4
   number of lm-projection operators is LMMAX =           8
 
 POTCAR:    PAW_PBE C 08Apr2002                   
   SHA256 =  253f7b50bb8d59471dbedb8285d89021f4a42ed1a2c5d38a03a736e69125dd95 C/POTCAR              
   COPYR  = (c) Copyright 08Apr2002 Georg Kresse                                                    
   COPYR  = This file is part of the software VASP. Any use, copying, and all other rights are regul
   COPYR  = If you do not have a valid VASP license, you may not use, copy or distribute this file. 
   VRHFIN =C: s2p2                                                                                  
   LEXCH  = PE                                                                                      
   EATOM  =   147.1560 eV,   10.8157 Ry                                                             
                                                                                                    
   TITEL  = PAW_PBE C 08Apr2002                                                                     
   LULTRA =        F    use ultrasoft PP ?                                                          
   IUNSCR =        1    unscreen: 0-lin 1-nonlin 2-no                                               
   RPACOR =    1.200    partial core radius                                                         
   POMASS =   12.011; ZVAL   =    4.000    mass and valenz                                          
   RCORE  =    1.500    outmost cutoff radius                                                       
   RWIGS  =    1.630; RWIGS  =    0.863    wigner-seitz radius (au A)                               
   ENMAX  =  400.000; ENMIN  =  300.000 eV                                                          
   ICORE  =        2    local potential                                                             
   LCOR   =        T    correct aug charges                                                         
   LPAW   =        T    paw PP                                                                      
   EAUG   =  644.873                                                                                
   DEXC   =    0.000                                                                                
   RMAX   =    1.529    core radius for proj-oper                                                   
   RAUG   =    1.300    factor for augmentation sphere                                              
   RDEP   =    1.501    radius for radial grids                                                     
   RDEPT  =    1.300    core radius for aug-charge                                                  
                                                                                                    
   Atomic configuration                                                                             
    4 entries                                                                                       
     n  l   j            E        occ.                                                              
     1  0  0.50      -273.3789   2.0000                                                             
     2  0  0.50       -13.7508   2.0000                                                             
     2  1  0.50        -5.2854   2.0000                                                             
     3  2  1.50        -5.4423   0.0000                                                             
   Description                                                                                      
     l       E           TYP  RCUT    TYP  RCUT                                                     
     0    -13.7508458     23  1.200                                                                 
     0     -8.2022199     23  1.200                                                                 
     1     -5.2854383     23  1.500                                                                 
     1     34.0145650     23  1.500                                                                 
     2     -5.4423304      7  1.500                                                                 
  local pseudopotential read in
  partial core-charges read in
  partial kinetic energy density read in
  atomic valenz-charges read in
  non local Contribution for L=           0  read in
    real space projection operators read in
  non local Contribution for L=           0  read in
    real space projection operators read in
  non local Contribution for L=           1  read in
    real space projection operators read in
  non local Contribution for L=           1  read in
    real space projection operators read in
    PAW grid and wavefunctions read in
 
   number of l-projection  operators is LMAX  =           4
   number of lm-projection operators is LMMAX =           8
 
 POTCAR:    PAW_PBE S 06Sep2000                   
   SHA256 =  0fc7481fb0695f01bdc6462160264c5c84044ae9ec85a907d398b887a2bc3132 S/POTCAR              
   COPYR  = (c) Copyright 06Sep2000 Georg Kresse                                                    
   COPYR  = This file is part of the software VASP. Any use, copying, and all other rights are regul
   COPYR  = If you do not have a valid VASP license, you may not use, copy or distribute this file. 
   VRHFIN =S : s2p4                                                                                 
   LEXCH  = PE                                                                                      
   EATOM  =   276.8230 eV,   20.3459 Ry                                                             
                                                                                                    
   TITEL  = PAW_PBE S 06Sep2000                                                                     
   LULTRA =        F    use ultrasoft PP ?                                                          
   IUNSCR =        1    unscreen: 0-lin 1-nonlin 2-no                                               
   RPACOR =    1.500    partial core radius                                                         
   POMASS =   32.066; ZVAL   =    6.000    mass and valenz                                          
   RCORE  =    1.900    outmost cutoff radius                                                       
   RWIGS  =    2.200; RWIGS  =    1.164    wigner-seitz radius (au A)                               
   ENMAX  =  258.689; ENMIN  =  194.016 eV                                                          
   ICORE  =        2    local potential                                                             
   LCOR   =        T    correct aug charges                                                         
   LPAW   =        T    paw PP                                                                      
   EAUG   =  335.092                                                                                
   DEXC   =    0.000                                                                                
   RMAX   =    1.942    core radius for proj-oper                                                   
   RAUG   =    1.300    factor for augmentation sphere                                              
   RDEP   =    1.954    radius for radial grids                                                     
   RDEPT  =    1.744    core radius for aug-charge                                                  
                                                                                                    
   Atomic configuration                                                                             
    6 entries                                                                                       
     n  l   j            E        occ.                                                              
     1  0  0.50     -2405.8406   2.0000                                                             
     2  0  0.50      -211.7007   2.0000                                                             
     2  1  1.50      -156.4958   6.0000                                                             
     3  0  0.50       -17.2562   2.0000                                                             
     3  1  0.50        -7.0085   4.0000                                                             
     3  2  1.50        -6.8029   0.0000                                                             
   Description                                                                                      
     l       E           TYP  RCUT    TYP  RCUT                                                     
     0    -17.2561641     23  1.900                                                                 
     0    -15.8743224     23  1.900                                                                 
     1     -7.0085400     23  1.900                                                                 
     1     -2.7779785     23  1.900                                                                 
     2     -6.8029130     23  1.900                                                                 
  local pseudopotential read in
  partial core-charges read in
  partial kinetic energy density read in
  atomic valenz-charges read in
  non local Contribution for L=           0  read in
    real space projection operators read in
  non local Contribution for L=           0  read in
    real space projection operators read in
  non local Contribution for L=           1  read in
    real space projection operators read in
  non local Contribution for L=           1  read in
    real space projection operators read in
    PAW grid and wavefunctions read in
 
   number of l-projection  operators is LMAX  =           4
   number of lm-projection operators is LMMAX =           8
 
 POTCAR:    PAW_PBE O 08Apr2002                   
   SHA256 =  818f92134a0a090dccd8ba1447fa70422a3b330e708bb4f08108d8ae51209ddf O/POTCAR              
   COPYR  = (c) Copyright 08Apr2002 Georg Kresse                                                    
   COPYR  = This file is part of the software VASP. Any use, copying, and all other rights are regul
   COPYR  = If you do not have a valid VASP license, you may not use, copy or distribute this file. 
   VRHFIN =O: s2p4                                                                                  
   LEXCH  = PE                                                                                      
   EATOM  =   432.3788 eV,   31.7789 Ry                                                             
                                                                                                    
   TITEL  = PAW_PBE O 08Apr2002                                                                     
   LULTRA =        F    use ultrasoft PP ?                                                          
   IUNSCR =        1    unscreen: 0-lin 1-nonlin 2-no                                               
   RPACOR =    1.200    partial core radius                                                         
   POMASS =   16.000; ZVAL   =    6.000    mass and valenz                                          
   RCORE  =    1.520    outmost cutoff radius                                                       
   RWIGS  =    1.550; RWIGS  =    0.820    wigner-seitz radius (au A)                               
   ENMAX  =  400.000; ENMIN  =  300.000 eV                                                          
   ICORE  =        2    local potential                                                             
   LCOR   =        T    correct aug charges                                                         
   LPAW   =        T    paw PP                                                                      
   EAUG   =  605.392                                                                                
   DEXC   =    0.000                                                                                
   RMAX   =    1.553    core radius for proj-oper                                                   
   RAUG   =    1.300    factor for augmentation sphere                                              
   RDEP   =    1.550    radius for radial grids                                                     
   RDEPT  =    1.329    core radius for aug-charge                                                  
                                                                                                    
   Atomic configuration                                                                             
    4 entries                                                                                       
     n  l   j            E        occ.                                                              
     1  0  0.50      -514.6923   2.0000                                                             
     2  0  0.50       -23.9615   2.0000                                                             
     2  1  0.50        -9.0305   4.0000                                                             
     3  2  1.50        -9.5241   0.0000                                                             
   Description                                                                                      
     l       E           TYP  RCUT    TYP  RCUT                                                     
     0    -23.9615318     23  1.200                                                                 
     0     -9.5240782     23  1.200                                                                 
     1     -9.0304911     23  1.520                                                                 
     1      8.1634956     23  1.520                                                                 
     2     -9.5240782      7  1.500                                                                 
  local pseudopotential read in
  partial core-charges read in
  partial kinetic energy density read in
  kinetic energy density of atom read in
  atomic valenz-charges read in
  non local Contribution for L=           0  read in
    real space projection operators read in
  non local Contribution for L=           0  read in
    real space projection operators read in
  non local Contribution for L=           1  read in
    real space projection operators read in
  non local Contribution for L=           1  read in
    real space projection operators read in
    PAW grid and wavefunctions read in
 
   number of l-projection  operators is LMAX  =           4
   number of lm-projection operators is LMMAX =           8
 
 POTCAR:    PAW_PBE H 15Jun2001                   
   SHA256 =  030f79b5d3ab3cf0e668861823c8fb652ff669f3e15e46930bd03bfd63a607b6 H/POTCAR              
   COPYR  = (c) Copyright 15Jun2001 Georg Kresse                                                    
   COPYR  = This file is part of the software VASP. Any use, copying, and all other rights are regul
   COPYR  = If you do not have a valid VASP license, you may not use, copy or distribute this file. 
   VRHFIN =H: ultrasoft test                                                                        
   LEXCH  = PE                                                                                      
   EATOM  =    12.4884 eV,    0.9179 Ry                                                             
                                                                                                    
   TITEL  = PAW_PBE H 15Jun2001                                                                     
   LULTRA =        F    use ultrasoft PP ?                                                          
   IUNSCR =        0    unscreen: 0-lin 1-nonlin 2-no                                               
   RPACOR =    0.000    partial core radius                                                         
   POMASS =    1.000; ZVAL   =    1.000    mass and valenz                                          
   RCORE  =    1.100    outmost cutoff radius                                                       
   RWIGS  =    0.700; RWIGS  =    0.370    wigner-seitz radius (au A)                               
   ENMAX  =  250.000; ENMIN  =  200.000 eV                                                          
   RCLOC  =    0.701    cutoff for local pot                                                        
   LCOR   =        T    correct aug charges                                                         
   LPAW   =        T    paw PP                                                                      
   EAUG   =  400.000                                                                                
   RMAX   =    1.123    core radius for proj-oper                                                   
   RAUG   =    1.200    factor for augmentation sphere                                              
   RDEP   =    1.112    radius for radial grids                                                     
   RDEPT  =    0.926    core radius for aug-charge                                                  
                                                                                                    
   Atomic configuration                                                                             
    2 entries                                                                                       
     n  l   j            E        occ.                                                              
     1  0  0.50        -6.4927   1.0000                                                             
     2  1  0.50        -3.4015   0.0000                                                             
   Description                                                                                      
     l       E           TYP  RCUT    TYP  RCUT                                                     
     0     -6.4927494     23  1.100                                                                 
     0      6.8029130     23  1.100                                                                 
     1     -4.0817478     23  1.100                                                                 
  local pseudopotential read in
  atomic valenz-charges read in
  non local Contribution for L=           0  read in
    real space projection operators read in
  non local Contribution for L=           0  read in
    real space projection operators read in
  non local Contribution for L=           1  read in
    real space projection operators read in
    PAW grid and wavefunctions read in
 
   number of l-projection  operators is LMAX  =           3
   number of lm-projection operators is LMMAX =           5
 
 Optimization of the real space projectors (new method)

 maximal supplied QI-value         = 16.25
 optimisation between [QCUT,QGAM] = [ 11.38, 22.75] = [ 36.24,144.96] Ry 
 Optimized for a Real-space Cutoff    1.31 Angstroem

   l    n(q)    QCUT    max X(q) W(low)/X(q) W(high)/X(q)  e(spline) 
   1      8    11.376     3.262    0.15E-03    0.36E-03    0.86E-07
   1      8    11.376     5.741    0.39E-03    0.84E-03    0.21E-06
   2      8    11.376    60.438    0.39E-03    0.55E-03    0.20E-06
   2      8    11.376    55.380    0.40E-03    0.57E-03    0.20E-06
   0      9    11.376    80.273    0.17E-03    0.16E-03    0.48E-07
   0      9    11.376    36.654    0.15E-03    0.14E-03    0.43E-07
 Optimization of the real space projectors (new method)

 maximal supplied QI-value         = 25.13
 optimisation between [QCUT,QGAM] = [ 11.31, 22.87] = [ 35.82,146.48] Ry 
 Optimized for a Real-space Cutoff    1.27 Angstroem

   l    n(q)    QCUT    max X(q) W(low)/X(q) W(high)/X(q)  e(spline) 
   0      9    11.310    79.467    0.75E-04    0.16E-03    0.36E-06
   0      9    11.310    66.151    0.74E-04    0.16E-03    0.36E-06
   1      8    11.310    17.416    0.35E-03    0.12E-03    0.95E-06
   1      8    11.310    12.382    0.37E-03    0.13E-03    0.98E-06
 Optimization of the real space projectors (new method)

 maximal supplied QI-value         = 25.13
 optimisation between [QCUT,QGAM] = [ 11.31, 22.87] = [ 35.82,146.48] Ry 
 Optimized for a Real-space Cutoff    1.00 Angstroem

   l    n(q)    QCUT    max X(q) W(low)/X(q) W(high)/X(q)  e(spline) 
   0      7    11.310   115.676    0.43E-03    0.13E-02    0.19E-06
   0      7    11.310    87.132    0.43E-03    0.13E-02    0.18E-06
   1      6    11.310     4.429    0.42E-03    0.74E-03    0.11E-06
   1      6    11.310     2.733    0.34E-03    0.55E-03    0.92E-07
 Optimization of the real space projectors (new method)

 maximal supplied QI-value         = 19.84
 optimisation between [QCUT,QGAM] = [ 11.31, 22.82] = [ 35.82,145.81] Ry 
 Optimized for a Real-space Cutoff    1.16 Angstroem

   l    n(q)    QCUT    max X(q) W(low)/X(q) W(high)/X(q)  e(spline) 
   0      8    11.310   187.594    0.35E-03    0.37E-03    0.44E-07
   0      8    11.310   164.243    0.34E-03    0.37E-03    0.44E-07
   1      7    11.310    67.533    0.33E-03    0.37E-03    0.88E-07
   1      7    11.310    50.729    0.32E-03    0.36E-03    0.86E-07
 Optimization of the real space projectors (new method)

 maximal supplied QI-value         = 24.76
 optimisation between [QCUT,QGAM] = [ 11.39, 22.77] = [ 36.31,145.25] Ry 
 Optimized for a Real-space Cutoff    1.00 Angstroem

   l    n(q)    QCUT    max X(q) W(low)/X(q) W(high)/X(q)  e(spline) 
   0      7    11.387    20.381    0.39E-03    0.13E-02    0.15E-06
   0      7    11.387    15.268    0.42E-03    0.14E-02    0.17E-06
   1      6    11.387     5.964    0.41E-03    0.11E-02    0.17E-06
   1      6    11.387     5.382    0.39E-03    0.87E-03    0.15E-06
 Optimization of the real space projectors (new method)

 maximal supplied QI-value         = 34.20
 optimisation between [QCUT,QGAM] = [ 11.29, 22.57] = [ 35.68,142.71] Ry 
 Optimized for a Real-space Cutoff    1.16 Angstroem

   l    n(q)    QCUT    max X(q) W(low)/X(q) W(high)/X(q)  e(spline) 
   0      8    11.287    19.460    0.40E-03    0.73E-03    0.16E-06
   0      8    11.287    12.209    0.38E-03    0.70E-03    0.15E-06
   1      7    11.287     4.655    0.22E-03    0.25E-04    0.22E-06
  PAW_PBE Cr_pv 02Aug2007               :
 energy of atom  1       EATOM=-1647.9177
 kinetic energy error for atom=    0.0061 (will be added to EATOM!!)
  PAW_PBE N 08Apr2002                   :
 energy of atom  2       EATOM= -264.5486
 kinetic energy error for atom=    0.0138 (will be added to EATOM!!)
  PAW_PBE C 08Apr2002                   :
 energy of atom  3       EATOM= -147.1560
 kinetic energy error for atom=    0.0076 (will be added to EATOM!!)
  PAW_PBE S 06Sep2000                   :
 energy of atom  4       EATOM= -276.8230
 kinetic energy error for atom=    0.0020 (will be added to EATOM!!)
  PAW_PBE O 08Apr2002                   :
 energy of atom  5       EATOM= -432.3788
 kinetic energy error for atom=    0.0224 (will be added to EATOM!!)
  PAW_PBE H 15Jun2001                   :
 energy of atom  6       EATOM=  -12.4884
 kinetic energy error for atom=    0.0020 (will be added to EATOM!!)
 
 
 POSCAR: Generated by VASPKIT code
  positions in cartesian coordinates
  No initial velocities read in
 exchange correlation table for  LEXCH =        8
   RHO(1)=    0.500       N(1)  =     2000
   RHO(2)=  100.500       N(2)  =     4000
 


--------------------------------------------------------------------------------------------------------


 ion  position               nearest neighbor table
   1  0.000  0.000  0.326-   4 1.88   7 1.88   9 1.88   6 1.88
   2  0.500  0.500  0.326-   8 1.88   5 1.88   3 1.88  10 1.88
   3  0.547  0.419  0.333-  91 1.05  28 1.36   2 1.88
   4  0.047  0.919  0.333-  92 1.05  27 1.36   1 1.88
   5  0.453  0.581  0.333-  93 1.05  30 1.36   2 1.88
   6  0.953  0.081  0.333-  94 1.05  29 1.36   1 1.88
   7  0.081  0.047  0.333-  95 1.05  32 1.36   1 1.88
   8  0.581  0.547  0.333-  96 1.05  31 1.36   2 1.88
   9  0.919  0.953  0.333-  97 1.05  34 1.36   1 1.88
  10  0.419  0.453  0.333-  98 1.05  33 1.36   2 1.88
  11  0.685  0.306  0.528-  51 1.37  44 1.41  60 1.45
  12  0.185  0.806  0.528-  52 1.37  43 1.41  59 1.45
  13  0.315  0.694  0.528-  53 1.37  46 1.41  62 1.45
  14  0.815  0.194  0.528-  54 1.37  45 1.41  61 1.45
  15  0.194  0.185  0.528-  55 1.37  48 1.41  64 1.45
  16  0.694  0.685  0.528-  56 1.37  47 1.41  63 1.45
  17  0.806  0.815  0.528-  57 1.37  50 1.41  66 1.45
  18  0.306  0.315  0.528-  58 1.37  49 1.41  65 1.45
  19  0.243  0.822  0.395- 123 1.03  43 1.27
  20  0.743  0.322  0.395- 124 1.03  44 1.27
  21  0.757  0.178  0.395- 125 1.03  45 1.27
  22  0.257  0.678  0.395- 126 1.03  46 1.27
  23  0.678  0.743  0.395- 127 1.03  47 1.27
  24  0.178  0.243  0.395- 128 1.03  48 1.27
  25  0.322  0.257  0.395- 129 1.03  49 1.27
  26  0.822  0.757  0.395- 130 1.03  50 1.27
  27  0.110  0.900  0.359-  83 1.24   4 1.36  36 1.56
  28  0.610  0.400  0.359-  84 1.24   3 1.36  35 1.56
  29  0.890  0.100  0.359-  85 1.24   6 1.36  38 1.56
  30  0.390  0.600  0.359-  86 1.24   5 1.36  37 1.56
  31  0.600  0.610  0.359-  87 1.24   8 1.36  40 1.56
  32  0.100  0.110  0.359-  88 1.24   7 1.36  39 1.56
  33  0.400  0.390  0.359-  89 1.24  10 1.36  42 1.56
  34  0.900  0.890  0.359-  90 1.24   9 1.36  41 1.56
  35  0.618  0.328  0.397-  99 1.11  44 1.52  28 1.56  67 1.82
  36  0.118  0.828  0.397- 100 1.11  43 1.52  27 1.56  68 1.82
  37  0.382  0.672  0.397- 101 1.11  46 1.52  30 1.56  69 1.82
  38  0.882  0.172  0.397- 102 1.11  45 1.52  29 1.56  70 1.82
  39  0.172  0.118  0.397- 103 1.11  48 1.52  32 1.56  71 1.82
  40  0.672  0.618  0.397- 104 1.11  47 1.52  31 1.56  72 1.82
  41  0.828  0.882  0.397- 105 1.11  50 1.52  34 1.56  73 1.82
  42  0.328  0.382  0.397- 106 1.11  49 1.52  33 1.56  74 1.82
  43  0.187  0.818  0.435-  19 1.27  12 1.41  36 1.52
  44  0.687  0.318  0.435-  20 1.27  11 1.41  35 1.52
  45  0.813  0.182  0.435-  21 1.27  14 1.41  38 1.52
  46  0.313  0.682  0.435-  22 1.27  13 1.41  37 1.52
  47  0.682  0.687  0.435-  23 1.27  16 1.41  40 1.52
  48  0.182  0.187  0.435-  24 1.27  15 1.41  39 1.52
  49  0.318  0.313  0.435-  25 1.27  18 1.41  42 1.52
  50  0.818  0.813  0.435-  26 1.27  17 1.41  41 1.52
  51  0.623  0.310  0.566-  11 1.37  75 1.65  67 1.73
  52  0.123  0.810  0.566-  12 1.37  76 1.65  68 1.73
  53  0.377  0.690  0.566-  13 1.37  77 1.65  69 1.73
  54  0.877  0.190  0.566-  14 1.37  78 1.65  70 1.73
  55  0.190  0.123  0.566-  15 1.37  79 1.65  71 1.73
  56  0.690  0.623  0.566-  16 1.37  80 1.65  72 1.73
  57  0.810  0.877  0.566-  17 1.37  81 1.65  73 1.73
  58  0.310  0.377  0.566-  18 1.37  82 1.65  74 1.73
  59  0.243  0.788  0.579- 107 1.10 115 1.10  12 1.45  62 1.55
  60  0.743  0.288  0.579- 108 1.10 116 1.10  11 1.45  61 1.55
  61  0.757  0.212  0.579- 109 1.10 117 1.10  14 1.45  60 1.55
  62  0.257  0.712  0.579- 110 1.10 118 1.10  13 1.45  59 1.55
  63  0.712  0.743  0.579- 111 1.10 119 1.10  16 1.45  66 1.55
  64  0.212  0.243  0.579- 112 1.10 120 1.10  15 1.45  65 1.55
  65  0.288  0.257  0.579- 113 1.10 121 1.10  18 1.45  64 1.55
  66  0.788  0.757  0.579- 114 1.10 122 1.10  17 1.45  63 1.55
  67  0.559  0.317  0.489-  51 1.73  35 1.82
  68  0.059  0.817  0.489-  52 1.73  36 1.82
  69  0.441  0.683  0.489-  53 1.73  37 1.82
  70  0.941  0.183  0.489-  54 1.73  38 1.82
  71  0.183  0.059  0.489-  55 1.73  39 1.82
  72  0.683  0.559  0.489-  56 1.73  40 1.82
  73  0.817  0.941  0.489-  57 1.73  41 1.82
  74  0.317  0.441  0.489-  58 1.73  42 1.82
  75  0.605  0.310  0.674-  51 1.65
  76  0.105  0.810  0.674-  52 1.65
  77  0.395  0.690  0.674-  53 1.65
  78  0.895  0.190  0.674-  54 1.65
  79  0.190  0.105  0.674-  55 1.65
  80  0.690  0.605  0.674-  56 1.65
  81  0.810  0.895  0.674-  57 1.65
  82  0.310  0.395  0.674-  58 1.65
  83  0.159  0.938  0.356-  27 1.24
  84  0.659  0.438  0.356-  28 1.24
  85  0.841  0.062  0.356-  29 1.24
  86  0.341  0.562  0.356-  30 1.24
  87  0.562  0.659  0.356-  31 1.24
  88  0.062  0.159  0.356-  32 1.24
  89  0.438  0.341  0.356-  33 1.24
  90  0.938  0.841  0.356-  34 1.24
  91  0.513  0.379  0.333-   3 1.05
  92  0.013  0.879  0.333-   4 1.05
  93  0.487  0.621  0.333-   5 1.05
  94  0.987  0.121  0.333-   6 1.05
  95  0.121  0.013  0.333-   7 1.05
  96  0.621  0.513  0.333-   8 1.05
  97  0.879  0.987  0.333-   9 1.05
  98  0.379  0.487  0.333-  10 1.05
  99  0.608  0.291  0.344-  35 1.11
 100  0.108  0.791  0.344-  36 1.11
 101  0.392  0.709  0.344-  37 1.11
 102  0.892  0.209  0.344-  38 1.11
 103  0.209  0.108  0.344-  39 1.11
 104  0.709  0.608  0.344-  40 1.11
 105  0.791  0.892  0.344-  41 1.11
 106  0.291  0.392  0.344-  42 1.11
 107  0.235  0.806  0.647-  59 1.10
 108  0.735  0.306  0.647-  60 1.10
 109  0.765  0.194  0.647-  61 1.10
 110  0.265  0.694  0.647-  62 1.10
 111  0.694  0.735  0.647-  63 1.10
 112  0.194  0.235  0.647-  64 1.10
 113  0.306  0.265  0.647-  65 1.10
 114  0.806  0.765  0.647-  66 1.10
 115  0.286  0.815  0.550-  59 1.10
 116  0.786  0.315  0.550-  60 1.10
 117  0.714  0.185  0.550-  61 1.10
 118  0.214  0.685  0.550-  62 1.10
 119  0.685  0.786  0.550-  63 1.10
 120  0.185  0.286  0.550-  64 1.10
 121  0.315  0.214  0.550-  65 1.10
 122  0.815  0.714  0.550-  66 1.10
 123  0.236  0.834  0.329-  19 1.03
 124  0.736  0.334  0.329-  20 1.03
 125  0.764  0.166  0.329-  21 1.03
 126  0.264  0.666  0.329-  22 1.03
 127  0.666  0.736  0.329-  23 1.03
 128  0.166  0.236  0.329-  24 1.03
 129  0.334  0.264  0.329-  25 1.03
 130  0.834  0.764  0.329-  26 1.03
 
  LATTYP: Found a simple tetragonal cell.
 ALAT       =    20.0248451233
 C/A-ratio  =     0.7490694638
  
  Lattice vectors:
  
 A1 = (  20.0248451233,   0.0000000000,   0.0000000000)
 A2 = (   0.0000000000,  20.0248451233,   0.0000000000)
 A3 = (   0.0000000000,   0.0000000000,  15.0000000000)


Analysis of symmetry for initial positions (statically):
=====================================================================
 Subroutine PRICEL returns following result:
 
  LATTYP: Found a simple tetragonal cell.
 ALAT       =    14.1597037124
 C/A-ratio  =     1.0593441999
  
  Lattice vectors:
  
 A1 = (  10.0124225150, -10.0124225143,   0.0000000000)
 A2 = (  10.0124225150,  10.0124226090,   0.0000000000)
 A3 = (   0.0000000000,   0.0000000000,  15.0000000000)
 
   2 primitive cells build up your supercell.
 

 Routine SETGRP: Setting up the symmetry group for a 
 simple tetragonal supercell.


 Subroutine GETGRP returns: Found  4 space group operations
 (whereof  4 operations were pure point group operations)
 out of a pool of 16 trial point group operations.


The static configuration has the point symmetry     .


Analysis of symmetry for dynamics (positions and initial velocities):
=====================================================================
 Subroutine PRICEL returns following result:
 
  LATTYP: Found a simple tetragonal cell.
 ALAT       =    14.1597037124
 C/A-ratio  =     1.0593441999
  
  Lattice vectors:
  
 A1 = (  10.0124225150, -10.0124225143,   0.0000000000)
 A2 = (  10.0124225150,  10.0124226090,   0.0000000000)
 A3 = (   0.0000000000,   0.0000000000,  15.0000000000)
 
   2 primitive cells build up your supercell.
 

 Routine SETGRP: Setting up the symmetry group for a 
 simple tetragonal supercell.


 Subroutine GETGRP returns: Found  4 space group operations
 (whereof  4 operations were pure point group operations)
 out of a pool of 16 trial point group operations.


The dynamic configuration has the point symmetry     .


Analysis of structural, dynamic, and magnetic symmetry:
=====================================================================
 Subroutine PRICEL returns:
 Original cell was already a primitive cell.
 

 Routine SETGRP: Setting up the symmetry group for a 
 simple tetragonal supercell.


 Subroutine GETGRP returns: Found  4 space group operations
 (whereof  2 operations were pure point group operations)
 out of a pool of 16 trial point group operations.


The overall configuration has the point symmetry C_2 .
 The point group associated with its full space group is C_2 .


 Subroutine INISYM returns: Found  4 space group operations
 (whereof  2 operations are pure point group operations),
 and found     1 'primitive' translations


----------------------------------------------------------------------------------------

                                     Primitive cell                                     

  volume of cell :    6014.9163

  direct lattice vectors                    reciprocal lattice vectors
    20.024845123  0.000000000  0.000000000     0.049937964 -0.000000000 -0.000000000
     0.000000000 20.024845123  0.000000000     0.000000000  0.049937964 -0.000000000
     0.000000000  0.000000000 15.000000000     0.000000000  0.000000000  0.066666667

  length of vectors
    20.024845123 20.024845123 15.000000000     0.049937964  0.049937964  0.066666667

  position of ions in fractional coordinates (direct lattice)
     0.000000000  0.000000000  0.326024848
     0.499999998  0.500000002  0.326024848
     0.547193733  0.418741917  0.333128726
     0.047193731  0.918741914  0.333128726
     0.452806262  0.581258088  0.333128726
     0.952806264  0.081258090  0.333128726
     0.081258086  0.047193736  0.333128726
     0.581258083  0.547193738  0.333128726
     0.918741910  0.952806269  0.333128726
     0.418741912  0.452806267  0.333128726
     0.684573566  0.306208295  0.527691792
     0.184573564  0.806208293  0.527691792
     0.315426429  0.693791709  0.527691792
     0.815426431  0.193791712  0.527691792
     0.193791707  0.184573569  0.527691792
     0.693791705  0.684573571  0.527691792
     0.806208288  0.815426436  0.527691792
     0.306208291  0.315426434  0.527691792
     0.243074128  0.822427911  0.395099678
     0.743074131  0.322427913  0.395099678
     0.756925867  0.177572094  0.395099678
     0.256925864  0.677572092  0.395099678
     0.677572087  0.743074135  0.395099678
     0.177572089  0.243074133  0.395099678
     0.322427908  0.256925869  0.395099678
     0.822427906  0.756925872  0.395099678
     0.109948272  0.900381294  0.358502856
     0.609948275  0.400381296  0.358502856
     0.890051723  0.099618711  0.358502856
     0.390051721  0.599618709  0.358502856
     0.599618704  0.609948279  0.358502856
     0.099618706  0.109948277  0.358502856
     0.400381291  0.390051725  0.358502856
     0.900381289  0.890051728  0.358502856
     0.617976606  0.328444214  0.396993480
     0.117976604  0.828444211  0.396993480
     0.382023389  0.671555791  0.396993480
     0.882023391  0.171555793  0.396993480
     0.171555789  0.117976609  0.396993480
     0.671555786  0.617976611  0.396993480
     0.828444207  0.882023396  0.396993480
     0.328444209  0.382023394  0.396993480
     0.187444463  0.818179136  0.435415249
     0.687444466  0.318179139  0.435415249
     0.812555532  0.181820868  0.435415249
     0.312555530  0.681820866  0.435415249
     0.681820861  0.687444470  0.435415249
     0.181820864  0.187444468  0.435415249
     0.318179134  0.312555534  0.435415249
     0.818179132  0.812555537  0.435415249
     0.622698960  0.310008055  0.566427897
     0.122698958  0.810008053  0.566427897
     0.377301035  0.689991950  0.566427897
     0.877301037  0.189991952  0.566427897
     0.189991947  0.122698963  0.566427897
     0.689991945  0.622698965  0.566427897
     0.810008048  0.877301042  0.566427897
     0.310008050  0.377301040  0.566427897
     0.243490273  0.788218365  0.578925974
     0.743490276  0.288218368  0.578925974
     0.756509722  0.211781640  0.578925974
     0.256509720  0.711781637  0.578925974
     0.711781632  0.743490280  0.578925974
     0.211781635  0.243490278  0.578925974
     0.288218363  0.256509724  0.578925974
     0.788218361  0.756509727  0.578925974
     0.559492336  0.316677688  0.488698733
     0.059492334  0.816677685  0.488698733
     0.440507659  0.683322317  0.488698733
     0.940507662  0.183322319  0.488698733
     0.183322315  0.059492338  0.488698733
     0.683322312  0.559492341  0.488698733
     0.816677681  0.940507666  0.488698733
     0.316677683  0.440507664  0.488698733
     0.604548964  0.309553108  0.673975152
     0.104548961  0.809553106  0.673975152
     0.395451032  0.690446896  0.673975152
     0.895451034  0.190446899  0.673975152
     0.190446894  0.104548966  0.673975152
     0.690446892  0.604548968  0.673975152
     0.809553101  0.895451039  0.673975152
     0.309553104  0.395451036  0.673975152
     0.158834491  0.938400902  0.356223583
     0.658834493  0.438400904  0.356223583
     0.841165505  0.061599103  0.356223583
     0.341165502  0.561599100  0.356223583
     0.561599096  0.658834498  0.356223583
     0.061599098  0.158834495  0.356223583
     0.438400900  0.341165507  0.356223583
     0.938400897  0.841165509  0.356223583
     0.513446604  0.378671624  0.332856947
     0.013446601  0.878671622  0.332856947
     0.486553392  0.621328380  0.332856947
     0.986553394  0.121328383  0.332856947
     0.121328378  0.013446606  0.332856947
     0.621328376  0.513446608  0.332856947
     0.878671617  0.986553399  0.332856947
     0.378671620  0.486553396  0.332856947
     0.608310538  0.291276686  0.343786078
     0.108310536  0.791276683  0.343786078
     0.391689457  0.708723319  0.343786078
     0.891689459  0.208723321  0.343786078
     0.208723317  0.108310541  0.343786078
     0.708723314  0.608310543  0.343786078
     0.791276679  0.891689464  0.343786078
     0.291276681  0.391689462  0.343786078
     0.234602609  0.805552359  0.647200467
     0.734602611  0.305552361  0.647200467
     0.765397387  0.194447646  0.647200467
     0.265397384  0.694447643  0.647200467
     0.694447639  0.734602616  0.647200467
     0.194447641  0.234602613  0.647200467
     0.305552357  0.265397389  0.647200467
     0.805552354  0.765397391  0.647200467
     0.286101066  0.815124266  0.550385032
     0.786101068  0.315124269  0.550385032
     0.713898929  0.184875738  0.550385032
     0.213898927  0.684875736  0.550385032
     0.684875731  0.786101073  0.550385032
     0.184875734  0.286101071  0.550385032
     0.315124264  0.213898932  0.550385032
     0.815124262  0.713898934  0.550385032
     0.235720781  0.833560689  0.329083351
     0.735720783  0.333560691  0.329083351
     0.764279214  0.166439316  0.329083351
     0.264279212  0.666439313  0.329083351
     0.666439309  0.735720788  0.329083351
     0.166439311  0.235720786  0.329083351
     0.333560687  0.264279217  0.329083351
     0.833560684  0.764279219  0.329083351

  ion indices of the primitive-cell ions
   primitive index   ion index
                 1           1
                 2           2
                 3           3
                 4           4
                 5           5
                 6           6
                 7           7
                 8           8
                 9           9
                10          10
                11          11
                12          12
                13          13
                14          14
                15          15
                16          16
                17          17
                18          18
                19          19
                20          20
                21          21
                22          22
                23          23
                24          24
                25          25
                26          26
                27          27
                28          28
                29          29
                30          30
                31          31
                32          32
                33          33
                34          34
                35          35
                36          36
                37          37
                38          38
                39          39
                40          40
                41          41
                42          42
                43          43
                44          44
                45          45
                46          46
                47          47
                48          48
                49          49
                50          50
                51          51
                52          52
                53          53
                54          54
                55          55
                56          56
                57          57
                58          58
                59          59
                60          60
                61          61
                62          62
                63          63
                64          64
                65          65
                66          66
                67          67
                68          68
                69          69
                70          70
                71          71
                72          72
                73          73
                74          74
                75          75
                76          76
                77          77
                78          78
                79          79
                80          80
                81          81
                82          82
                83          83
                84          84
                85          85
                86          86
                87          87
                88          88
                89          89
                90          90
                91          91
                92          92
                93          93
                94          94
                95          95
                96          96
                97          97
                98          98
                99          99
               100         100
               101         101
               102         102
               103         103
               104         104
               105         105
               106         106
               107         107
               108         108
               109         109
               110         110
               111         111
               112         112
               113         113
               114         114
               115         115
               116         116
               117         117
               118         118
               119         119
               120         120
               121         121
               122         122
               123         123
               124         124
               125         125
               126         126
               127         127
               128         128
               129         129
               130         130

----------------------------------------------------------------------------------------

 
 
 KPOINTS: K-Path Generated by VASPKIT.            

Interpolating k-points between supplied coordinates.

 Line segments in fractional coordinates (reciprocal lattice):
    0.500000  0.500000  0.000000  ...  0.500000  0.000000  0.000000
    0.500000  0.000000  0.000000  ...  1.000000  0.000000  0.000000
    1.000000  0.000000  0.000000  ...  0.500000  0.500000  0.000000
    0.500000  0.500000  0.000000  ...  1.000000  1.000000  0.000000
    1.000000  1.000000  0.000000  ...  1.000000  0.500000  0.000000
    1.000000  0.500000  0.000000  ...  0.500000  0.500000  0.000000

 Generated    20 points on each line segment, for a total of    120 k-points:

 Following reciprocal coordinates:
            Coordinates               Weight
  0.500000  0.500000  0.000000      0.008333
  0.500000  0.473684  0.000000      0.008333
  0.500000  0.447368  0.000000      0.008333
  0.500000  0.421053  0.000000      0.008333
  0.500000  0.394737  0.000000      0.008333
  0.500000  0.368421  0.000000      0.008333
  0.500000  0.342105  0.000000      0.008333
  0.500000  0.315789  0.000000      0.008333
  0.500000  0.289474  0.000000      0.008333
  0.500000  0.263158  0.000000      0.008333
  0.500000  0.236842  0.000000      0.008333
  0.500000  0.210526  0.000000      0.008333
  0.500000  0.184211  0.000000      0.008333
  0.500000  0.157895  0.000000      0.008333
  0.500000  0.131579  0.000000      0.008333
  0.500000  0.105263  0.000000      0.008333
  0.500000  0.078947  0.000000      0.008333
  0.500000  0.052632  0.000000      0.008333
  0.500000  0.026316  0.000000      0.008333
  0.500000  0.000000  0.000000      0.008333
  0.500000  0.000000  0.000000      0.008333
  0.526316  0.000000  0.000000      0.008333
  0.552632  0.000000  0.000000      0.008333
  0.578947  0.000000  0.000000      0.008333
  0.605263  0.000000  0.000000      0.008333
  0.631579  0.000000  0.000000      0.008333
  0.657895  0.000000  0.000000      0.008333
  0.684211  0.000000  0.000000      0.008333
  0.710526  0.000000  0.000000      0.008333
  0.736842  0.000000  0.000000      0.008333
  0.763158  0.000000  0.000000      0.008333
  0.789474  0.000000  0.000000      0.008333
  0.815789  0.000000  0.000000      0.008333
  0.842105  0.000000  0.000000      0.008333
  0.868421  0.000000  0.000000      0.008333
  0.894737  0.000000  0.000000      0.008333
  0.921053  0.000000  0.000000      0.008333
  0.947368  0.000000  0.000000      0.008333
  0.973684  0.000000  0.000000      0.008333
  1.000000  0.000000  0.000000      0.008333
  1.000000  0.000000  0.000000      0.008333
  0.973684  0.026316  0.000000      0.008333
  0.947368  0.052632  0.000000      0.008333
  0.921053  0.078947  0.000000      0.008333
  0.894737  0.105263  0.000000      0.008333
  0.868421  0.131579  0.000000      0.008333
  0.842105  0.157895  0.000000      0.008333
  0.815789  0.184211  0.000000      0.008333
  0.789474  0.210526  0.000000      0.008333
  0.763158  0.236842  0.000000      0.008333
  0.736842  0.263158  0.000000      0.008333
  0.710526  0.289474  0.000000      0.008333
  0.684211  0.315789  0.000000      0.008333
  0.657895  0.342105  0.000000      0.008333
  0.631579  0.368421  0.000000      0.008333
  0.605263  0.394737  0.000000      0.008333
  0.578947  0.421053  0.000000      0.008333
  0.552632  0.447368  0.000000      0.008333
  0.526316  0.473684  0.000000      0.008333
  0.500000  0.500000  0.000000      0.008333
  0.500000  0.500000  0.000000      0.008333
  0.526316  0.526316  0.000000      0.008333
  0.552632  0.552632  0.000000      0.008333
  0.578947  0.578947  0.000000      0.008333
  0.605263  0.605263  0.000000      0.008333
  0.631579  0.631579  0.000000      0.008333
  0.657895  0.657895  0.000000      0.008333
  0.684211  0.684211  0.000000      0.008333
  0.710526  0.710526  0.000000      0.008333
  0.736842  0.736842  0.000000      0.008333
  0.763158  0.763158  0.000000      0.008333
  0.789474  0.789474  0.000000      0.008333
  0.815789  0.815789  0.000000      0.008333
  0.842105  0.842105  0.000000      0.008333
  0.868421  0.868421  0.000000      0.008333
  0.894737  0.894737  0.000000      0.008333
  0.921053  0.921053  0.000000      0.008333
  0.947368  0.947368  0.000000      0.008333
  0.973684  0.973684  0.000000      0.008333
  1.000000  1.000000  0.000000      0.008333
  1.000000  1.000000  0.000000      0.008333
  1.000000  0.973684  0.000000      0.008333
  1.000000  0.947368  0.000000      0.008333
  1.000000  0.921053  0.000000      0.008333
  1.000000  0.894737  0.000000      0.008333
  1.000000  0.868421  0.000000      0.008333
  1.000000  0.842105  0.000000      0.008333
  1.000000  0.815789  0.000000      0.008333
  1.000000  0.789474  0.000000      0.008333
  1.000000  0.763158  0.000000      0.008333
  1.000000  0.736842  0.000000      0.008333
  1.000000  0.710526  0.000000      0.008333
  1.000000  0.684211  0.000000      0.008333
  1.000000  0.657895  0.000000      0.008333
  1.000000  0.631579  0.000000      0.008333
  1.000000  0.605263  0.000000      0.008333
  1.000000  0.578947  0.000000      0.008333
  1.000000  0.552632  0.000000      0.008333
  1.000000  0.526316  0.000000      0.008333
  1.000000  0.500000  0.000000      0.008333
  1.000000  0.500000  0.000000      0.008333
  0.973684  0.500000  0.000000      0.008333
  0.947368  0.500000  0.000000      0.008333
  0.921053  0.500000  0.000000      0.008333
  0.894737  0.500000  0.000000      0.008333
  0.868421  0.500000  0.000000      0.008333
  0.842105  0.500000  0.000000      0.008333
  0.815789  0.500000  0.000000      0.008333
  0.789474  0.500000  0.000000      0.008333
  0.763158  0.500000  0.000000      0.008333
  0.736842  0.500000  0.000000      0.008333
  0.710526  0.500000  0.000000      0.008333
  0.684211  0.500000  0.000000      0.008333
  0.657895  0.500000  0.000000      0.008333
  0.631579  0.500000  0.000000      0.008333
  0.605263  0.500000  0.000000      0.008333
  0.578947  0.500000  0.000000      0.008333
  0.552632  0.500000  0.000000      0.008333
  0.526316  0.500000  0.000000      0.008333
  0.500000  0.500000  0.000000      0.008333

 Following cartesian coordinates:
            Coordinates               Weight
  0.024969  0.024969 -0.000000      0.008333
  0.024969  0.023655 -0.000000      0.008333
  0.024969  0.022341 -0.000000      0.008333
  0.024969  0.021027 -0.000000      0.008333
  0.024969  0.019712 -0.000000      0.008333
  0.024969  0.018398 -0.000000      0.008333
  0.024969  0.017084 -0.000000      0.008333
  0.024969  0.015770 -0.000000      0.008333
  0.024969  0.014456 -0.000000      0.008333
  0.024969  0.013142 -0.000000      0.008333
  0.024969  0.011827 -0.000000      0.008333
  0.024969  0.010513 -0.000000      0.008333
  0.024969  0.009199 -0.000000      0.008333
  0.024969  0.007885 -0.000000      0.008333
  0.024969  0.006571 -0.000000      0.008333
  0.024969  0.005257 -0.000000      0.008333
  0.024969  0.003942 -0.000000      0.008333
  0.024969  0.002628 -0.000000      0.008333
  0.024969  0.001314 -0.000000      0.008333
  0.024969 -0.000000 -0.000000      0.008333
  0.024969 -0.000000 -0.000000      0.008333
  0.026283 -0.000000 -0.000000      0.008333
  0.027597 -0.000000 -0.000000      0.008333
  0.028911 -0.000000 -0.000000      0.008333
  0.030226 -0.000000 -0.000000      0.008333
  0.031540 -0.000000 -0.000000      0.008333
  0.032854 -0.000000 -0.000000      0.008333
  0.034168 -0.000000 -0.000000      0.008333
  0.035482 -0.000000 -0.000000      0.008333
  0.036796 -0.000000 -0.000000      0.008333
  0.038111 -0.000000 -0.000000      0.008333
  0.039425 -0.000000 -0.000000      0.008333
  0.040739 -0.000000 -0.000000      0.008333
  0.042053 -0.000000 -0.000000      0.008333
  0.043367 -0.000000 -0.000000      0.008333
  0.044681 -0.000000 -0.000000      0.008333
  0.045995 -0.000000 -0.000000      0.008333
  0.047310 -0.000000 -0.000000      0.008333
  0.048624 -0.000000 -0.000000      0.008333
  0.049938 -0.000000 -0.000000      0.008333
  0.049938 -0.000000 -0.000000      0.008333
  0.048624  0.001314 -0.000000      0.008333
  0.047310  0.002628 -0.000000      0.008333
  0.045995  0.003942 -0.000000      0.008333
  0.044681  0.005257 -0.000000      0.008333
  0.043367  0.006571 -0.000000      0.008333
  0.042053  0.007885 -0.000000      0.008333
  0.040739  0.009199 -0.000000      0.008333
  0.039425  0.010513 -0.000000      0.008333
  0.038111  0.011827 -0.000000      0.008333
  0.036796  0.013142 -0.000000      0.008333
  0.035482  0.014456 -0.000000      0.008333
  0.034168  0.015770 -0.000000      0.008333
  0.032854  0.017084 -0.000000      0.008333
  0.031540  0.018398 -0.000000      0.008333
  0.030226  0.019712 -0.000000      0.008333
  0.028911  0.021027 -0.000000      0.008333
  0.027597  0.022341 -0.000000      0.008333
  0.026283  0.023655 -0.000000      0.008333
  0.024969  0.024969 -0.000000      0.008333
  0.024969  0.024969 -0.000000      0.008333
  0.026283  0.026283 -0.000000      0.008333
  0.027597  0.027597 -0.000000      0.008333
  0.028911  0.028911 -0.000000      0.008333
  0.030226  0.030226 -0.000000      0.008333
  0.031540  0.031540 -0.000000      0.008333
  0.032854  0.032854 -0.000000      0.008333
  0.034168  0.034168 -0.000000      0.008333
  0.035482  0.035482 -0.000000      0.008333
  0.036796  0.036796 -0.000000      0.008333
  0.038111  0.038111 -0.000000      0.008333
  0.039425  0.039425 -0.000000      0.008333
  0.040739  0.040739 -0.000000      0.008333
  0.042053  0.042053 -0.000000      0.008333
  0.043367  0.043367 -0.000000      0.008333
  0.044681  0.044681 -0.000000      0.008333
  0.045995  0.045995 -0.000000      0.008333
  0.047310  0.047310 -0.000000      0.008333
  0.048624  0.048624 -0.000000      0.008333
  0.049938  0.049938 -0.000000      0.008333
  0.049938  0.049938 -0.000000      0.008333
  0.049938  0.048624 -0.000000      0.008333
  0.049938  0.047310 -0.000000      0.008333
  0.049938  0.045995 -0.000000      0.008333
  0.049938  0.044681 -0.000000      0.008333
  0.049938  0.043367 -0.000000      0.008333
  0.049938  0.042053 -0.000000      0.008333
  0.049938  0.040739 -0.000000      0.008333
  0.049938  0.039425 -0.000000      0.008333
  0.049938  0.038111 -0.000000      0.008333
  0.049938  0.036796 -0.000000      0.008333
  0.049938  0.035482 -0.000000      0.008333
  0.049938  0.034168 -0.000000      0.008333
  0.049938  0.032854 -0.000000      0.008333
  0.049938  0.031540 -0.000000      0.008333
  0.049938  0.030226 -0.000000      0.008333
  0.049938  0.028911 -0.000000      0.008333
  0.049938  0.027597 -0.000000      0.008333
  0.049938  0.026283 -0.000000      0.008333
  0.049938  0.024969 -0.000000      0.008333
  0.049938  0.024969 -0.000000      0.008333
  0.048624  0.024969 -0.000000      0.008333
  0.047310  0.024969 -0.000000      0.008333
  0.045995  0.024969 -0.000000      0.008333
  0.044681  0.024969 -0.000000      0.008333
  0.043367  0.024969 -0.000000      0.008333
  0.042053  0.024969 -0.000000      0.008333
  0.040739  0.024969 -0.000000      0.008333
  0.039425  0.024969 -0.000000      0.008333
  0.038111  0.024969 -0.000000      0.008333
  0.036796  0.024969 -0.000000      0.008333
  0.035482  0.024969 -0.000000      0.008333
  0.034168  0.024969 -0.000000      0.008333
  0.032854  0.024969 -0.000000      0.008333
  0.031540  0.024969 -0.000000      0.008333
  0.030226  0.024969 -0.000000      0.008333
  0.028911  0.024969 -0.000000      0.008333
  0.027597  0.024969 -0.000000      0.008333
  0.026283  0.024969 -0.000000      0.008333
  0.024969  0.024969 -0.000000      0.008333
 


--------------------------------------------------------------------------------------------------------




 Dimension of arrays:
   k-points           NKPTS =    120   k-points in BZ     NKDIM =    120   number of bands    NBANDS=    312
   number of dos      NEDOS =    301   number of ions     NIONS =    130
   non local maximal  LDIM  =      6   non local SUM 2l+1 LMDIM =     18
   total plane-waves  NPLWV = ******
   max r-space proj   IRMAX =   1699   max aug-charges    IRDMAX=   6294
   dimension x,y,z NGX =   112 NGY =  112 NGZ =   84
   dimension x,y,z NGXF=   224 NGYF=  224 NGZF=  168
   support grid    NGXF=   224 NGYF=  224 NGZF=  168
   ions per type =               2  24  40  16   8  40
   NGX,Y,Z   is equivalent  to a cutoff of   9.30,  9.30,  9.31 a.u.
   NGXF,Y,Z  is equivalent  to a cutoff of  18.60, 18.60, 18.62 a.u.

 SYSTEM =  unknown system                          
 POSCAR =  Generated by VASPKIT code               

 Startparameter for this run:
   NWRITE =      2    write-flag & timer
   PREC   = normal    normal or accurate (medium, high low for compatibility)
   ISTART =      1    job   : 0-new  1-cont  2-samecut
   ICHARG =     11    charge: 1-file 2-atom 10-const
   ISPIN  =      2    spin polarized calculation?
   LNONCOLLINEAR =      F non collinear calculations
   LSORBIT =      F    spin-orbit coupling
   INIWAV =      1    electr: 0-lowe 1-rand  2-diag
   LASPH  =      F    aspherical Exc in radial PAW
 Electronic Relaxation 1
   ENCUT  =  500.0 eV  36.75 Ry    6.06 a.u.  36.51 36.51 27.35*2*pi/ulx,y,z
   ENINI  =  500.0     initial cutoff
   ENAUG  =  644.9 eV  augmentation charge cutoff
   NELM   =    200;   NELMIN=  2; NELMDL=  0     # of ELM steps 
   EDIFF  = 0.1E-04   stopping-criterion for ELM
   LREAL  =      T    real-space projection
   NLSPLINE    = F    spline interpolate recip. space projectors
   LCOMPAT=      F    compatible to vasp.4.4
   GGA_COMPAT  = T    GGA compatible to vasp.4.4-vasp.4.6
   LMAXPAW     = -100 max onsite density
   LMAXMIX     =    4 max onsite mixed and CHGCAR
   VOSKOWN=      0    Vosko Wilk Nusair interpolation
   ROPT   =   -0.00050  -0.00050  -0.00050  -0.00050
   ROPT   =   -0.00050  -0.00050
 Ionic relaxation
   EDIFFG = -.1E-01   stopping-criterion for IOM
   NSW    =      0    number of steps for IOM
   NBLOCK =      1;   KBLOCK =      1    inner block; outer block 
   IBRION =     -1    ionic relax: 0-MD 1-quasi-New 2-CG
   NFREE  =      0    steps in history (QN), initial steepest desc. (CG)
   ISIF   =      2    stress and relaxation
   IWAVPR =     10    prediction:  0-non 1-charg 2-wave 3-comb
   ISYM   =      2    0-nonsym 1-usesym 2-fastsym
   LCORR  =      T    Harris-Foulkes like correction to forces

   POTIM  = 0.5000    time-step for ionic-motion
   TEIN   =    0.0    initial temperature
   TEBEG  =    0.0;   TEEND  =   0.0 temperature during run
   SMASS  =  -3.00    Nose mass-parameter (am)
   estimated Nose-frequenzy (Omega)   =  0.10E-29 period in steps = 0.13E+47 mass=  -0.916E-26a.u.
   SCALEE = 1.0000    scale energy and forces
   NPACO  =    256;   APACO  = 10.0  distance and # of slots for P.C.
   PSTRESS=    0.0 pullay stress

  Mass of Ions in am
   POMASS =  52.00 14.00 12.01 32.07 16.00  1.00
  Ionic Valenz
   ZVAL   =  12.00  5.00  4.00  6.00  6.00  1.00
  Atomic Wigner-Seitz radii
   RWIGS  =  -1.00 -1.00 -1.00 -1.00 -1.00 -1.00
  virtual crystal weights 
   VCA    =   1.00  1.00  1.00  1.00  1.00  1.00
   NELECT =     488.0000    total number of electrons
   NUPDOWN=      -1.0000    fix difference up-down

 DOS related values:
   EMIN   =  10.00;   EMAX   =-10.00  energy-range for DOS
   EFERMI =   0.00
   ISMEAR =     1;   SIGMA  =   0.20  broadening in eV -4-tet -1-fermi 0-gaus

 Electronic relaxation 2 (details)
   IALGO  =     68    algorithm
   LDIAG  =      T    sub-space diagonalisation (order eigenvalues)
   LSUBROT=      F    optimize rotation matrix (better conditioning)
   TURBO    =      0    0=normal 1=particle mesh
   IRESTART =      0    0=no restart 2=restart with 2 vectors
   NREBOOT  =      0    no. of reboots
   NMIN     =      0    reboot dimension
   EREF     =   0.00    reference energy to select bands
   IMIX   =      4    mixing-type and parameters
     AMIX     =   0.20;   BMIX     =  0.00
     AMIX_MAG =   0.80;   BMIX_MAG =  0.00
     AMIN     =   0.10
     WC   =   100.;   INIMIX=   1;  MIXPRE=   1;  MAXMIX= -45

 Intra band minimization:
   WEIMIN = 0.0000     energy-eigenvalue tresh-hold
   EBREAK =  0.80E-08  absolut break condition
   DEPER  =   0.30     relativ break condition  

   TIME   =   0.40     timestep for ELM

  volume/ion in A,a.u.               =      46.27       312.24
  Fermi-wavevector in a.u.,A,eV,Ry     =   0.708715  1.339277  6.833891  0.502277
  Thomas-Fermi vector in A             =   1.795104
 
 Write flags
   LWAVE        =      F    write WAVECAR
   LDOWNSAMPLE  =      F    k-point downsampling of WAVECAR
   LCHARG       =      F    write CHGCAR
   LVTOT        =      T    write LOCPOT, total local potential
   LVHAR        =      F    write LOCPOT, Hartree potential only
   LELF         =      F    write electronic localiz. function (ELF)
   LORBIT       =     11    0 simple, 1 ext, 2 COOP (PROOUT), +10 PAW based schemes


 Dipole corrections
   LMONO  =      F    monopole corrections only (constant potential shift)
   LDIPOL =      F    correct potential (dipole corrections)
   IDIPOL =      0    1-x, 2-y, 3-z, 4-all directions 
   EPSILON=  1.0000000 bulk dielectric constant

 LDA+U is selected, type is set to LDAUTYPE =  2
   angular momentum for each species LDAUL =     2   -1   -1   -1   -1   -1
   U (eV)           for each species LDAUU =   3.0  0.0  0.0  0.0  0.0  0.0
   J (eV)           for each species LDAUJ =   1.0  0.0  0.0  0.0  0.0  0.0
 Exchange correlation treatment:
   GGA     =    --    GGA type
   LEXCH   =     8    internal setting for exchange type
   LIBXC   =     F    Libxc                    
   VOSKOWN =     0    Vosko Wilk Nusair interpolation
   LHFCALC =     F    Hartree Fock is set to
   LHFONE  =     F    Hartree Fock one center treatment
   AEXX    =    0.0000 exact exchange contribution

 Linear response parameters
   LEPSILON=     F    determine dielectric tensor
   LRPA    =     F    only Hartree local field effects (RPA)
   LNABLA  =     F    use nabla operator in PAW spheres
   LVEL    =     F    velocity operator in full k-point grid
   CSHIFT  =0.1000    complex shift for real part using Kramers Kronig
   OMEGAMAX=  -1.0    maximum frequency
   DEG_THRESHOLD= 0.2000000E-02 threshold for treating states as degnerate
   RTIME   =   -0.100 relaxation time in fs
  (WPLASMAI=    0.000 imaginary part of plasma frequency in eV, 0.658/RTIME)
   DFIELD  = 0.0000000 0.0000000 0.0000000 field for delta impulse in time
 
  Optional k-point grid parameters
   LKPOINTS_OPT  =     F    use optional k-point grid
   KPOINTS_OPT_MODE=     1    mode for optional k-point grid
 
 Orbital magnetization related:
   ORBITALMAG=     F  switch on orbital magnetization
   LCHIMAG   =     F  perturbation theory with respect to B field
   DQ        =  0.001000  dq finite difference perturbation B field
   LLRAUG    =     F  two centre corrections for induced B field



--------------------------------------------------------------------------------------------------------


 Static calculation
 charge density and potential remain constant during run
 spin polarized calculation
 RMM-DIIS sequential band-by-band and
  variant of blocked Davidson during initial phase
 perform sub-space diagonalisation
    before iterative eigenvector-optimisation
 no mixing
 using additional bands           68
 real space projection scheme for non local part
 use partial core corrections
 calculate Harris-corrections to forces 
   (improved forces if not selfconsistent)
 use gradient corrections 
 WARNING: stress and forces are not correct
  (second derivative of E(xc) not defined)
 use of overlap-Matrix (Vanderbilt PP)
 Methfessel and Paxton  Order N= 1 SIGMA  =   0.20


--------------------------------------------------------------------------------------------------------


  energy-cutoff  :      500.00
  volume of cell :     6014.92
      direct lattice vectors                 reciprocal lattice vectors
    20.024845123  0.000000000  0.000000000     0.049937964 -0.000000000 -0.000000000
     0.000000000 20.024845123  0.000000000     0.000000000  0.049937964 -0.000000000
     0.000000000  0.000000000 15.000000000     0.000000000  0.000000000  0.066666667

  length of vectors
    20.024845123 20.024845123 15.000000000     0.049937964  0.049937964  0.066666667


 
 old parameters found on file WAVECAR:
  energy-cutoff  :      500.00
  volume of cell :     6014.92
      direct lattice vectors                 reciprocal lattice vectors
    20.024845123  0.000000000  0.000000000     0.049937964 -0.000000000 -0.000000000
     0.000000000 20.024845123  0.000000000     0.000000000  0.049937964 -0.000000000
     0.000000000  0.000000000 15.000000000     0.000000000  0.000000000  0.066666667

  length of vectors

 
 k-points in units of 2pi/SCALE and weight: K-Path Generated by VASPKIT.            
   0.02496898  0.02496898 -0.00000000       0.008
   0.02496898  0.02365483 -0.00000000       0.008
   0.02496898  0.02234067 -0.00000000       0.008
   0.02496898  0.02102651 -0.00000000       0.008
   0.02496898  0.01971235 -0.00000000       0.008
   0.02496898  0.01839820 -0.00000000       0.008
   0.02496898  0.01708404 -0.00000000       0.008
   0.02496898  0.01576988 -0.00000000       0.008
   0.02496898  0.01445573 -0.00000000       0.008
   0.02496898  0.01314157 -0.00000000       0.008
   0.02496898  0.01182741 -0.00000000       0.008
   0.02496898  0.01051326 -0.00000000       0.008
   0.02496898  0.00919910 -0.00000000       0.008
   0.02496898  0.00788494 -0.00000000       0.008
   0.02496898  0.00657078 -0.00000000       0.008
   0.02496898  0.00525663 -0.00000000       0.008
   0.02496898  0.00394247 -0.00000000       0.008
   0.02496898  0.00262831 -0.00000000       0.008
   0.02496898  0.00131416 -0.00000000       0.008
   0.02496898 -0.00000000 -0.00000000       0.008
   0.02496898 -0.00000000 -0.00000000       0.008
   0.02628314 -0.00000000 -0.00000000       0.008
   0.02759730 -0.00000000 -0.00000000       0.008
   0.02891145 -0.00000000 -0.00000000       0.008
   0.03022561 -0.00000000 -0.00000000       0.008
   0.03153977 -0.00000000 -0.00000000       0.008
   0.03285392 -0.00000000 -0.00000000       0.008
   0.03416808 -0.00000000 -0.00000000       0.008
   0.03548224 -0.00000000 -0.00000000       0.008
   0.03679639 -0.00000000 -0.00000000       0.008
   0.03811055 -0.00000000 -0.00000000       0.008
   0.03942471 -0.00000000 -0.00000000       0.008
   0.04073887 -0.00000000 -0.00000000       0.008
   0.04205302 -0.00000000 -0.00000000       0.008
   0.04336718 -0.00000000 -0.00000000       0.008
   0.04468134 -0.00000000 -0.00000000       0.008
   0.04599549 -0.00000000 -0.00000000       0.008
   0.04730965 -0.00000000 -0.00000000       0.008
   0.04862381 -0.00000000 -0.00000000       0.008
   0.04993796 -0.00000000 -0.00000000       0.008
   0.04993796 -0.00000000 -0.00000000       0.008
   0.04862381  0.00131416 -0.00000000       0.008
   0.04730965  0.00262831 -0.00000000       0.008
   0.04599549  0.00394247 -0.00000000       0.008
   0.04468134  0.00525663 -0.00000000       0.008
   0.04336718  0.00657078 -0.00000000       0.008
   0.04205302  0.00788494 -0.00000000       0.008
   0.04073887  0.00919910 -0.00000000       0.008
   0.03942471  0.01051326 -0.00000000       0.008
   0.03811055  0.01182741 -0.00000000       0.008
   0.03679639  0.01314157 -0.00000000       0.008
   0.03548224  0.01445573 -0.00000000       0.008
   0.03416808  0.01576988 -0.00000000       0.008
   0.03285392  0.01708404 -0.00000000       0.008
   0.03153977  0.01839820 -0.00000000       0.008
   0.03022561  0.01971235 -0.00000000       0.008
   0.02891145  0.02102651 -0.00000000       0.008
   0.02759730  0.02234067 -0.00000000       0.008
   0.02628314  0.02365483 -0.00000000       0.008
   0.02496898  0.02496898 -0.00000000       0.008
   0.02496898  0.02496898 -0.00000000       0.008
   0.02628314  0.02628314 -0.00000000       0.008
   0.02759730  0.02759730 -0.00000000       0.008
   0.02891145  0.02891145 -0.00000000       0.008
   0.03022561  0.03022561 -0.00000000       0.008
   0.03153977  0.03153977 -0.00000000       0.008
   0.03285392  0.03285392 -0.00000000       0.008
   0.03416808  0.03416808 -0.00000000       0.008
   0.03548224  0.03548224 -0.00000000       0.008
   0.03679639  0.03679639 -0.00000000       0.008
   0.03811055  0.03811055 -0.00000000       0.008
   0.03942471  0.03942471 -0.00000000       0.008
   0.04073887  0.04073887 -0.00000000       0.008
   0.04205302  0.04205302 -0.00000000       0.008
   0.04336718  0.04336718 -0.00000000       0.008
   0.04468134  0.04468134 -0.00000000       0.008
   0.04599549  0.04599549 -0.00000000       0.008
   0.04730965  0.04730965 -0.00000000       0.008
   0.04862381  0.04862381 -0.00000000       0.008
   0.04993796  0.04993796 -0.00000000       0.008
   0.04993796  0.04993796 -0.00000000       0.008
   0.04993796  0.04862381 -0.00000000       0.008
   0.04993796  0.04730965 -0.00000000       0.008
   0.04993796  0.04599549 -0.00000000       0.008
   0.04993796  0.04468134 -0.00000000       0.008
   0.04993796  0.04336718 -0.00000000       0.008
   0.04993796  0.04205302 -0.00000000       0.008
[...]
      3.80456      2.45703      8.49642        -0.028720     -0.023940      0.497330
     13.81698     12.46945      8.49642        -0.032465     -0.012494      0.495136
     16.22029     17.56782      8.49642         0.028720      0.023940      0.497330
      6.20786      7.55539      8.49642         0.032465      0.012494      0.495136
      4.87586     15.78395      8.68389         0.038884      0.003893      0.001607
     14.88828      5.77153      8.68389         0.038295      0.004648     -0.001290
     15.14899      4.24089      8.68389        -0.038884     -0.003893      0.001607
      5.13657     14.25332      8.68389        -0.038295     -0.004648     -0.001290
     14.25332     14.88828      8.68389        -0.003893      0.038884      0.001607
      4.24089      4.87586      8.68389        -0.004648      0.038295     -0.001290
      5.77153      5.13657      8.68389         0.003893     -0.038884      0.001607
     15.78395     15.14899      8.68389         0.004648     -0.038295     -0.001290
     11.20375      6.34142      7.33048        -0.263368      0.031320     -0.075079
      1.19132     16.35384      7.33048        -0.270377      0.039800     -0.068925
      8.82110     13.68342      7.33048         0.263368     -0.031320     -0.075079
     18.83352      3.67100      7.33048         0.270377     -0.039800     -0.068925
      3.67100      1.19132      7.33048        -0.031320     -0.263368     -0.075079
     13.68342     11.20375      7.33048        -0.039800     -0.270377     -0.068925
     16.35384     18.83352      7.33048         0.031320      0.263368     -0.075079
      6.34142      8.82110      7.33048         0.039800      0.270377     -0.068925
     12.10600      6.19875     10.10963         0.112843     -0.189925     -0.093414
      2.09358     16.21118     10.10963         0.112549     -0.196954     -0.099805
      7.91885     13.82609     10.10963        -0.112843      0.189925     -0.093414
     17.93127      3.81367     10.10963        -0.112549      0.196954     -0.099805
      3.81367      2.09358     10.10963         0.189925      0.112843     -0.093414
     13.82609     12.10600     10.10963         0.196954      0.112549     -0.099805
     16.21118     17.93127     10.10963        -0.189925     -0.112843     -0.093414
      6.19875      7.91885     10.10963        -0.196954     -0.112549     -0.099805
      3.18064     18.79133      5.34335         0.276152     -0.060299     -0.117430
     13.19306      8.77891      5.34335         0.279420     -0.056111     -0.119748
     16.84421      1.23351      5.34335        -0.276152      0.060299     -0.117430
      6.83179     11.24594      5.34335        -0.279420      0.056111     -0.119748
     11.24593     13.19306      5.34335         0.060299      0.276152     -0.117430
      1.23351      3.18064      5.34335         0.056111      0.279420     -0.119748
      8.77891      6.83179      5.34335        -0.060299     -0.276152     -0.117430
     18.79133     16.84421      5.34335        -0.056111     -0.279420     -0.119748
     10.28169      7.58284      4.99285         0.215755      0.177752      0.159751
      0.26927     17.59526      4.99285         0.213159      0.176103      0.158350
      9.74316     12.44200      4.99285        -0.215755     -0.177752      0.159751
     19.75558      2.42958      4.99285        -0.213159     -0.176103      0.158350
      2.42958      0.26927      4.99285        -0.177752      0.215755      0.159751
     12.44200     10.28169      4.99285        -0.176103      0.213159      0.158350
     17.59526     19.75558      4.99285         0.177752     -0.215755      0.159751
      7.58284      9.74316      4.99285         0.176103     -0.213159      0.158350
     12.18132      5.83277      5.15679        -0.001785      0.158175      0.175352
      2.16890     15.84519      5.15679        -0.003478      0.159658      0.175844
      7.84352     14.19207      5.15679         0.001785     -0.158175      0.175352
     17.85594      4.17965      5.15679         0.003478     -0.159658      0.175844
      4.17965      2.16890      5.15679        -0.158175     -0.001785      0.175352
     14.19207     12.18132      5.15679        -0.159658     -0.003478      0.175844
     15.84519     17.85594      5.15679         0.158175      0.001785      0.175352
      5.83277      7.84352      5.15679         0.159658      0.003478      0.175844
      4.69788     16.13106      9.70801         0.006045      0.021647      0.053592
     14.71030      6.11864      9.70801         0.004723      0.021875      0.055601
     15.32696      3.89378      9.70801        -0.006045     -0.021647      0.053592
      5.31454     13.90621      9.70801        -0.004723     -0.021875      0.055601
     13.90621     14.71030      9.70801        -0.021647      0.006045      0.053592
      3.89378      4.69788      9.70801        -0.021875      0.004723      0.055601
      6.11864      5.31454      9.70801         0.021647     -0.006045      0.053592
     16.13106     15.32696      9.70801         0.021875     -0.004723      0.055601
      5.72913     16.32274      8.25578         0.026490      0.011804     -0.003175
     15.74155      6.31031      8.25578         0.027741      0.011860     -0.003484
     14.29572      3.70211      8.25578        -0.026490     -0.011804     -0.003175
      4.28329     13.71453      8.25578        -0.027741     -0.011860     -0.003484
     13.71453     15.74155      8.25578        -0.011804      0.026490     -0.003175
      3.70211      5.72913      8.25578        -0.011860      0.027741     -0.003484
      6.31031      4.28329      8.25578         0.011804     -0.026490     -0.003175
     16.32274     14.29572      8.25578         0.011860     -0.027741     -0.003484
      4.72027     16.69192      4.93625         0.092869      0.021095      0.079625
     14.73269      6.67950      4.93625         0.092354      0.022809      0.077803
     15.30457      3.33292      4.93625        -0.092869     -0.021095      0.079625
      5.29215     13.34534      4.93625        -0.092354     -0.022809      0.077803
     13.34534     14.73269      4.93625        -0.021095      0.092869      0.079625
      3.33292      4.72027      4.93625        -0.022809      0.092354      0.077803
      6.67950      5.29215      4.93625         0.021095     -0.092869      0.079625
     16.69192     15.30457      4.93625         0.022809     -0.092354      0.077803
 -----------------------------------------------------------------------------------
    total drift:                                0.001519     -0.001517     -0.236139


--------------------------------------------------------------------------------------------------------



  FREE ENERGIE OF THE ION-ELECTRON SYSTEM (eV)
  ---------------------------------------------------
  free  energy   TOTEN  =      -834.35155741 eV

  energy  without entropy=     -834.35108580  energy(sigma->0) =     -834.35140020
 


--------------------------------------------------------------------------------------------------------


    POTLOK:  cpu time      0.3157: real time      0.3276


--------------------------------------------------------------------------------------------------------


     LOOP+:  cpu time   4991.9843: real time   5377.9455
    4ORBIT:  cpu time      0.0000: real time      0.0000



 total charge

# of ion       s       p       d       tot
------------------------------------------
    1        0.383   6.458   4.033  10.873
    2        0.383   6.458   4.033  10.873
    3        1.246   2.684   0.000   3.930
    4        1.246   2.684   0.000   3.930
    5        1.246   2.684   0.000   3.930
    6        1.246   2.684   0.000   3.930
    7        1.246   2.684   0.000   3.930
    8        1.246   2.684   0.000   3.930
    9        1.246   2.684   0.000   3.930
   10        1.246   2.684   0.000   3.930
   11        1.215   2.750   0.000   3.965
   12        1.215   2.751   0.000   3.966
   13        1.215   2.750   0.000   3.965
   14        1.215   2.751   0.000   3.966
   15        1.215   2.750   0.000   3.965
   16        1.215   2.751   0.000   3.966
   17        1.215   2.750   0.000   3.965
   18        1.215   2.751   0.000   3.966
   19        1.273   2.632   0.000   3.904
   20        1.272   2.632   0.000   3.904
   21        1.273   2.632   0.000   3.904
   22        1.272   2.632   0.000   3.904
   23        1.273   2.632   0.000   3.904
   24        1.272   2.632   0.000   3.904
   25        1.273   2.632   0.000   3.904
   26        1.272   2.632   0.000   3.904
   27        0.869   1.694   0.000   2.563
   28        0.869   1.694   0.000   2.563
   29        0.869   1.694   0.000   2.563
   30        0.869   1.694   0.000   2.563
   31        0.869   1.694   0.000   2.563
   32        0.869   1.694   0.000   2.563
   33        0.869   1.694   0.000   2.563
   34        0.869   1.694   0.000   2.563
   35        0.839   1.709   0.000   2.548
   36        0.839   1.709   0.000   2.549
   37        0.839   1.709   0.000   2.548
   38        0.839   1.709   0.000   2.549
   39        0.839   1.709   0.000   2.548
   40        0.839   1.709   0.000   2.549
   41        0.839   1.709   0.000   2.548
   42        0.839   1.709   0.000   2.549
   43        0.867   1.739   0.000   2.607
   44        0.867   1.739   0.000   2.607
   45        0.867   1.739   0.000   2.607
   46        0.867   1.739   0.000   2.607
   47        0.867   1.739   0.000   2.607
   48        0.867   1.739   0.000   2.607
   49        0.867   1.739   0.000   2.607
   50        0.867   1.739   0.000   2.607
   51        0.854   1.636   0.000   2.490
   52        0.854   1.636   0.000   2.490
   53        0.854   1.636   0.000   2.490
   54        0.854   1.636   0.000   2.490
   55        0.854   1.636   0.000   2.490
   56        0.854   1.636   0.000   2.490
   57        0.854   1.636   0.000   2.490
   58        0.854   1.636   0.000   2.490
   59        0.836   1.756   0.000   2.592
   60        0.836   1.756   0.000   2.592
   61        0.836   1.756   0.000   2.592
   62        0.836   1.756   0.000   2.592
   63        0.836   1.756   0.000   2.592
   64        0.836   1.756   0.000   2.592
   65        0.836   1.756   0.000   2.592
   66        0.836   1.756   0.000   2.592
   67        1.358   2.375   0.000   3.734
   68        1.359   2.376   0.000   3.734
   69        1.358   2.375   0.000   3.734
   70        1.359   2.376   0.000   3.734
   71        1.358   2.375   0.000   3.734
   72        1.359   2.376   0.000   3.734
   73        1.358   2.375   0.000   3.734
   74        1.359   2.376   0.000   3.734
   75        1.350   2.390   0.000   3.740
   76        1.350   2.392   0.000   3.742
   77        1.350   2.390   0.000   3.740
   78        1.350   2.392   0.000   3.742
   79        1.350   2.390   0.000   3.740
   80        1.350   2.392   0.000   3.742
   81        1.350   2.390   0.000   3.740
   82        1.350   2.392   0.000   3.742
   83        1.589   3.549   0.000   5.137
   84        1.589   3.549   0.000   5.137
   85        1.589   3.549   0.000   5.137
   86        1.589   3.549   0.000   5.137
   87        1.589   3.549   0.000   5.137
   88        1.589   3.549   0.000   5.137
   89        1.589   3.549   0.000   5.137
   90        1.589   3.549   0.000   5.137
   91        0.594   0.089   0.000   0.683
   92        0.594   0.089   0.000   0.683
   93        0.594   0.089   0.000   0.683
   94        0.594   0.089   0.000   0.683
   95        0.594   0.089   0.000   0.683
   96        0.594   0.089   0.000   0.683
   97        0.594   0.089   0.000   0.683
   98        0.594   0.089   0.000   0.683
   99        0.623   0.044   0.000   0.667
  100        0.623   0.044   0.000   0.667
  101        0.623   0.044   0.000   0.667
  102        0.623   0.044   0.000   0.667
  103        0.623   0.044   0.000   0.667
  104        0.623   0.044   0.000   0.667
  105        0.623   0.044   0.000   0.667
  106        0.623   0.044   0.000   0.667
  107        0.640   0.047   0.000   0.687
  108        0.640   0.047   0.000   0.687
  109        0.640   0.047   0.000   0.687
  110        0.640   0.047   0.000   0.687
  111        0.640   0.047   0.000   0.687
  112        0.640   0.047   0.000   0.687
  113        0.640   0.047   0.000   0.687
  114        0.640   0.047   0.000   0.687
  115        0.640   0.046   0.000   0.686
  116        0.640   0.046   0.000   0.686
  117        0.640   0.046   0.000   0.686
  118        0.640   0.046   0.000   0.686
  119        0.640   0.046   0.000   0.686
  120        0.640   0.046   0.000   0.686
  121        0.640   0.046   0.000   0.686
  122        0.640   0.046   0.000   0.686
  123        0.636   0.080   0.000   0.716
  124        0.636   0.080   0.000   0.716
  125        0.636   0.080   0.000   0.716
  126        0.636   0.080   0.000   0.716
  127        0.636   0.080   0.000   0.716
  128        0.636   0.080   0.000   0.716
  129        0.636   0.080   0.000   0.716
  130        0.636   0.080   0.000   0.716
--------------------------------------------------
tot        124.210 214.684   8.066 346.960



 magnetization (x)

# of ion       s       p       d       tot
------------------------------------------
    1        0.055   0.033   2.580   2.668
    2       -0.055  -0.033  -2.580  -2.668
    3        0.008   0.090   0.000   0.098
    4       -0.008  -0.090   0.000  -0.098
    5        0.008   0.090   0.000   0.098
    6       -0.008  -0.090   0.000  -0.098
    7       -0.008  -0.090   0.000  -0.098
    8        0.008   0.090   0.000   0.098
    9       -0.008  -0.090   0.000  -0.098
   10        0.008   0.090   0.000   0.098
   11       -0.000  -0.002   0.000  -0.002
   12       -0.000  -0.002   0.000  -0.003
   13       -0.000  -0.002   0.000  -0.002
   14       -0.000  -0.002   0.000  -0.003
   15        0.000   0.002   0.000   0.002
   16        0.000   0.002   0.000   0.003
   17        0.000   0.002   0.000   0.002
   18        0.000   0.002   0.000   0.003
   19       -0.000  -0.000   0.000  -0.001
   20       -0.000   0.000   0.000   0.000
   21       -0.000  -0.000   0.000  -0.001
   22       -0.000   0.000   0.000   0.000
   23        0.000   0.000   0.000   0.001
   24        0.000  -0.000   0.000  -0.000
   25        0.000   0.000   0.000   0.001
   26        0.000  -0.000   0.000  -0.000
   27        0.002   0.012   0.000   0.015
   28       -0.002  -0.012   0.000  -0.014
   29        0.002   0.012   0.000   0.015
   30       -0.002  -0.012   0.000  -0.014
   31       -0.002  -0.012   0.000  -0.015
   32        0.002   0.012   0.000   0.014
   33       -0.002  -0.012   0.000  -0.015
   34        0.002   0.012   0.000   0.014
   35        0.000  -0.000   0.000   0.000
   36       -0.000  -0.002   0.000  -0.002
   37        0.000  -0.000   0.000   0.000
   38       -0.000  -0.002   0.000  -0.002
   39       -0.000   0.000   0.000  -0.000
   40        0.000   0.002   0.000   0.002
   41       -0.000   0.000   0.000  -0.000
   42        0.000   0.002   0.000   0.002
   43        0.000   0.000   0.000   0.000
   44        0.000  -0.000   0.000   0.000
   45        0.000   0.000   0.000   0.000
   46        0.000  -0.000   0.000   0.000
   47       -0.000  -0.000   0.000  -0.000
   48       -0.000   0.000   0.000  -0.000
   49       -0.000  -0.000   0.000  -0.000
   50       -0.000   0.000   0.000  -0.000
   51        0.000   0.002   0.000   0.002
   52        0.001   0.003   0.000   0.004
   53        0.000   0.002   0.000   0.002
   54        0.001   0.003   0.000   0.004
   55       -0.000  -0.002   0.000  -0.002
   56       -0.001  -0.003   0.000  -0.004
   57       -0.000  -0.002   0.000  -0.002
   58       -0.001  -0.003   0.000  -0.004
   59       -0.000  -0.002   0.000  -0.002
   60       -0.000  -0.001   0.000  -0.001
   61       -0.000  -0.002   0.000  -0.002
   62       -0.000  -0.001   0.000  -0.001
   63        0.000   0.002   0.000   0.002
   64        0.000   0.001   0.000   0.001
   65        0.000   0.002   0.000   0.002
   66        0.000   0.001   0.000   0.001
   67       -0.001   0.002   0.000   0.002
   68       -0.000  -0.007   0.000  -0.007
   69       -0.001   0.002   0.000   0.002
   70       -0.000  -0.007   0.000  -0.007
   71        0.001  -0.002   0.000  -0.002
   72        0.000   0.007   0.000   0.007
   73        0.001  -0.002   0.000  -0.002
   74        0.000   0.007   0.000   0.007
   75       -0.002  -0.067   0.000  -0.069
   76       -0.002  -0.075   0.000  -0.078
   77       -0.002  -0.067   0.000  -0.069
   78       -0.002  -0.075   0.000  -0.078
   79        0.002   0.067   0.000   0.069
   80        0.002   0.075   0.000   0.078
   81        0.002   0.067   0.000   0.069
   82        0.002   0.075   0.000   0.078
   83       -0.000  -0.019   0.000  -0.019
   84        0.000   0.020   0.000   0.020
   85       -0.000  -0.019   0.000  -0.019
   86        0.000   0.020   0.000   0.020
   87        0.000   0.019   0.000   0.019
   88       -0.000  -0.020   0.000  -0.020
   89        0.000   0.019   0.000   0.019
   90       -0.000  -0.020   0.000  -0.020
   91       -0.007   0.000   0.000  -0.007
   92        0.007  -0.000   0.000   0.007
   93       -0.007   0.000   0.000  -0.007
   94        0.007  -0.000   0.000   0.007
   95        0.007  -0.000   0.000   0.007
   96       -0.007   0.000   0.000  -0.007
   97        0.007  -0.000   0.000   0.007
   98       -0.007   0.000   0.000  -0.007
   99       -0.001  -0.000   0.000  -0.001
  100        0.000  -0.000   0.000   0.000
  101       -0.001  -0.000   0.000  -0.001
  102        0.000  -0.000   0.000   0.000
  103        0.001   0.000   0.000   0.001
  104       -0.000   0.000   0.000  -0.000
  105        0.001   0.000   0.000   0.001
  106       -0.000   0.000   0.000  -0.000
  107       -0.000  -0.000   0.000  -0.000
  108       -0.000  -0.000   0.000  -0.000
  109       -0.000  -0.000   0.000  -0.000
  110       -0.000  -0.000   0.000  -0.000
  111        0.000   0.000   0.000   0.000
  112        0.000   0.000   0.000   0.000
  113        0.000   0.000   0.000   0.000
  114        0.000   0.000   0.000   0.000
  115       -0.000  -0.000   0.000  -0.000
  116       -0.000  -0.000   0.000  -0.000
  117       -0.000  -0.000   0.000  -0.000
  118       -0.000  -0.000   0.000  -0.000
  119        0.000   0.000   0.000   0.000
  120        0.000   0.000   0.000   0.000
  121        0.000   0.000   0.000   0.000
  122        0.000   0.000   0.000   0.000
  123       -0.000   0.000   0.000  -0.000
  124       -0.000   0.000   0.000  -0.000
  125       -0.000   0.000   0.000  -0.000
  126       -0.000   0.000   0.000  -0.000
  127        0.000  -0.000   0.000   0.000
  128        0.000  -0.000   0.000   0.000
  129        0.000  -0.000   0.000   0.000
  130        0.000  -0.000   0.000   0.000
--------------------------------------------------
tot          0.000   0.000   0.000   0.000
 

 total amount of memory used by VASP MPI-rank0  3947526. kBytes
=======================================================================

   base      :      30000. kBytes
   nonlr-proj:       4477. kBytes
   fftplans  :      15722. kBytes
   grid      :      45158. kBytes
   one-center:        342. kBytes
   wavefun   :    3851827. kBytes
 
  
  
 General timing and accounting informations for this job:
 ========================================================
  
                  Total CPU time used (sec):     5383.428
                            User time (sec):     4981.774
                          System time (sec):      401.654
                         Elapsed time (sec):     5784.542
  
                   Maximum memory used (kb):     4762940.
                   Average memory used (kb):          N/A
  
                          Minor page faults:      6980916
                          Major page faults:         4011
                 Voluntary context switches:      3288859
