 vasp.6.3.2 27Jun22 (build Aug 02 2025 14:55:03) complex                        
  
 executed on             LinuxIFC date 2025.11.08  19:27:15
 running on   64 total cores
 distrk:  each k-point on   64 cores,    1 groups
 distr:  one band on NCORE=  16 cores,    4 groups


--------------------------------------------------------------------------------------------------------


 INCAR:
   PREC = Normal
   ENCUT = 500
   IBRION = -1
   ISPIN = 2
   MAGMOM = 5 -5 4*1 4*-1 4*1 4*-1 4*1 4*-1 4*1 4*-1 4*1 4*-1 4*1 4*-1 4*1 4*-1 4*1 4*-1 4*1 4*-1 4*1 4*-1 4*1 4*-1 4*1 4*-1 4*1 4*-1 4*1 4*-1 4*1 4*-1 4*1 4*-1 4*1 4*-1 4*1 4*-1 4*1 4*-1 4*1 4*-1 4*1 4*-1 4*1 4*-1 4*1 4*-1 4*1 4*-1 4*1 4*-1 4*1 4*-1 4*1 4*-1 4*1 4*-1 4*1 4*-1 4*1 4*-1 4*1 4*-1 4*1 4*-1 4*1 4*-1 4*1 4*-1 4*1 4*-1 4*1 4*-1 4*1 4*-1 4*1 4*-1 4*1 4*-1
   NSW = 0
   NELM = 200
   ISIF = 2
   EDIFF = 1E-5
   EDIFFG = -0.01
   ALGO = Fast
   ISTART = 1
   ICHARG = 11
   LREAL = Auto
   LWAVE = .F.
   LCHARG = .F.
   LVTOT = .T.
   NPAR = 4
   AMIX = 0.2
   BMIX = 0.0001
   AMIX_MAG = 0.8
   BMIX_MAG = 0.0001
   LDAU = .TRUE.
   LDAUTYPE = 2
   LDAUL = 2 -1 -1 -1 -1 -1
   LDAUU = 3.0 0 0 0 0 0
   LDAUJ = 1.0 0 0 0 0 0
   LMAXMIX = 4
   LORBIT = 11

 POTCAR:    PAW_PBE Cr_pv 02Aug2007               
 POTCAR:    PAW_PBE H 15Jun2001                   
 POTCAR:    PAW_PBE C 08Apr2002                   
 POTCAR:    PAW_PBE N 08Apr2002                   
 POTCAR:    PAW_PBE O 08Apr2002                   
 WARNING: For LVTOT=.TRUE., VASP.5.x writes the TOTAL local potential to the
     file LOCPOT. If you want only the Hartree contributions, use LVHAR=.TRUE.
     instead. 

 POTCAR:    PAW_PBE Cr_pv 02Aug2007               
   SHA256 =  c9a7df34d3cdbacf1090e328ef39c0b420964e11c23f63548d1ac9dd218cdba0 Cr_pv/POTCAR          
   COPYR  = (c) Copyright 02Aug2007 Georg Kresse                                                    
   COPYR  = This file is part of the software VASP. Any use, copying, and all other rights are regul
   COPYR  = If you do not have a valid VASP license, you may not use, copy or distribute this file. 
   VRHFIN =Cr : p6d5s1                                                                              
   LEXCH  = PE                                                                                      
   EATOM  =  1647.9177 eV,  121.1185 Ry                                                             
                                                                                                    
   TITEL  = PAW_PBE Cr_pv 02Aug2007                                                                 
   LULTRA =        F    use ultrasoft PP ?                                                          
   IUNSCR =        1    unscreen: 0-lin 1-nonlin 2-no                                               
   RPACOR =    2.080    partial core radius                                                         
   POMASS =   51.996; ZVAL   =   12.000    mass and valenz                                          
   RCORE  =    2.300    outmost cutoff radius                                                       
   RWIGS  =    2.500; RWIGS  =    1.323    wigner-seitz radius (au A)                               
   ENMAX  =  265.681; ENMIN  =  199.261 eV                                                          
   ICORE  =        3    local potential                                                             
   LCOR   =        T    correct aug charges                                                         
   LPAW   =        T    paw PP                                                                      
   EAUG   =  519.424                                                                                
   DEXC   =    0.000                                                                                
   RMAX   =    2.356    core radius for proj-oper                                                   
   RAUG   =    1.300    factor for augmentation sphere                                              
   RDEP   =    2.447    radius for radial grids                                                     
   RDEPT  =    1.882    core radius for aug-charge                                                  
                                                                                                    
   Atomic configuration                                                                             
    8 entries                                                                                       
     n  l   j            E        occ.                                                              
     1  0  0.50     -5880.4963   2.0000                                                             
     2  0  0.50      -667.0865   2.0000                                                             
     2  1  1.50      -560.6250   6.0000                                                             
     3  0  0.50       -73.9860   2.0000                                                             
     3  1  1.50       -45.4378   6.0000                                                             
     3  2  2.50        -2.9137   5.0000                                                             
     4  0  0.50        -4.0071   1.0000                                                             
     4  3  2.50        -1.3606   0.0000                                                             
   Description                                                                                      
     l       E           TYP  RCUT    TYP  RCUT                                                     
     1    -45.4377911     23  2.000                                                                 
     1      1.3605826     23  2.000                                                                 
     2     -2.9136672     23  2.300                                                                 
     2     -4.2742498     23  2.300                                                                 
     0     -4.0071320     23  2.300                                                                 
     0      9.4498803     23  2.300                                                                 
     3      2.7211652     23  2.300                                                                 
  local pseudopotential read in
  partial core-charges read in
  partial kinetic energy density read in
  atomic valenz-charges read in
  non local Contribution for L=           1  read in
    real space projection operators read in
  non local Contribution for L=           1  read in
    real space projection operators read in
  non local Contribution for L=           2  read in
    real space projection operators read in
  non local Contribution for L=           2  read in
    real space projection operators read in
  non local Contribution for L=           0  read in
    real space projection operators read in
  non local Contribution for L=           0  read in
    real space projection operators read in
    PAW grid and wavefunctions read in
 
   number of l-projection  operators is LMAX  =           6
   number of lm-projection operators is LMMAX =          18
 
 POTCAR:    PAW_PBE H 15Jun2001                   
   SHA256 =  030f79b5d3ab3cf0e668861823c8fb652ff669f3e15e46930bd03bfd63a607b6 H/POTCAR              
   COPYR  = (c) Copyright 15Jun2001 Georg Kresse                                                    
   COPYR  = This file is part of the software VASP. Any use, copying, and all other rights are regul
   COPYR  = If you do not have a valid VASP license, you may not use, copy or distribute this file. 
   VRHFIN =H: ultrasoft test                                                                        
   LEXCH  = PE                                                                                      
   EATOM  =    12.4884 eV,    0.9179 Ry                                                             
                                                                                                    
   TITEL  = PAW_PBE H 15Jun2001                                                                     
   LULTRA =        F    use ultrasoft PP ?                                                          
   IUNSCR =        0    unscreen: 0-lin 1-nonlin 2-no                                               
   RPACOR =    0.000    partial core radius                                                         
   POMASS =    1.000; ZVAL   =    1.000    mass and valenz                                          
   RCORE  =    1.100    outmost cutoff radius                                                       
   RWIGS  =    0.700; RWIGS  =    0.370    wigner-seitz radius (au A)                               
   ENMAX  =  250.000; ENMIN  =  200.000 eV                                                          
   RCLOC  =    0.701    cutoff for local pot                                                        
   LCOR   =        T    correct aug charges                                                         
   LPAW   =        T    paw PP                                                                      
   EAUG   =  400.000                                                                                
   RMAX   =    1.123    core radius for proj-oper                                                   
   RAUG   =    1.200    factor for augmentation sphere                                              
   RDEP   =    1.112    radius for radial grids                                                     
   RDEPT  =    0.926    core radius for aug-charge                                                  
                                                                                                    
   Atomic configuration                                                                             
    2 entries                                                                                       
     n  l   j            E        occ.                                                              
     1  0  0.50        -6.4927   1.0000                                                             
     2  1  0.50        -3.4015   0.0000                                                             
   Description                                                                                      
     l       E           TYP  RCUT    TYP  RCUT                                                     
     0     -6.4927494     23  1.100                                                                 
     0      6.8029130     23  1.100                                                                 
     1     -4.0817478     23  1.100                                                                 
  local pseudopotential read in
  atomic valenz-charges read in
  non local Contribution for L=           0  read in
    real space projection operators read in
  non local Contribution for L=           0  read in
    real space projection operators read in
  non local Contribution for L=           1  read in
    real space projection operators read in
    PAW grid and wavefunctions read in
 
   number of l-projection  operators is LMAX  =           3
   number of lm-projection operators is LMMAX =           5
 
 POTCAR:    PAW_PBE C 08Apr2002                   
   SHA256 =  253f7b50bb8d59471dbedb8285d89021f4a42ed1a2c5d38a03a736e69125dd95 C/POTCAR              
   COPYR  = (c) Copyright 08Apr2002 Georg Kresse                                                    
   COPYR  = This file is part of the software VASP. Any use, copying, and all other rights are regul
   COPYR  = If you do not have a valid VASP license, you may not use, copy or distribute this file. 
   VRHFIN =C: s2p2                                                                                  
   LEXCH  = PE                                                                                      
   EATOM  =   147.1560 eV,   10.8157 Ry                                                             
                                                                                                    
   TITEL  = PAW_PBE C 08Apr2002                                                                     
   LULTRA =        F    use ultrasoft PP ?                                                          
   IUNSCR =        1    unscreen: 0-lin 1-nonlin 2-no                                               
   RPACOR =    1.200    partial core radius                                                         
   POMASS =   12.011; ZVAL   =    4.000    mass and valenz                                          
   RCORE  =    1.500    outmost cutoff radius                                                       
   RWIGS  =    1.630; RWIGS  =    0.863    wigner-seitz radius (au A)                               
   ENMAX  =  400.000; ENMIN  =  300.000 eV                                                          
   ICORE  =        2    local potential                                                             
   LCOR   =        T    correct aug charges                                                         
   LPAW   =        T    paw PP                                                                      
   EAUG   =  644.873                                                                                
   DEXC   =    0.000                                                                                
   RMAX   =    1.529    core radius for proj-oper                                                   
   RAUG   =    1.300    factor for augmentation sphere                                              
   RDEP   =    1.501    radius for radial grids                                                     
   RDEPT  =    1.300    core radius for aug-charge                                                  
                                                                                                    
   Atomic configuration                                                                             
    4 entries                                                                                       
     n  l   j            E        occ.                                                              
     1  0  0.50      -273.3789   2.0000                                                             
     2  0  0.50       -13.7508   2.0000                                                             
     2  1  0.50        -5.2854   2.0000                                                             
     3  2  1.50        -5.4423   0.0000                                                             
   Description                                                                                      
     l       E           TYP  RCUT    TYP  RCUT                                                     
     0    -13.7508458     23  1.200                                                                 
     0     -8.2022199     23  1.200                                                                 
     1     -5.2854383     23  1.500                                                                 
     1     34.0145650     23  1.500                                                                 
     2     -5.4423304      7  1.500                                                                 
  local pseudopotential read in
  partial core-charges read in
  partial kinetic energy density read in
  atomic valenz-charges read in
  non local Contribution for L=           0  read in
    real space projection operators read in
  non local Contribution for L=           0  read in
    real space projection operators read in
  non local Contribution for L=           1  read in
    real space projection operators read in
  non local Contribution for L=           1  read in
    real space projection operators read in
    PAW grid and wavefunctions read in
 
   number of l-projection  operators is LMAX  =           4
   number of lm-projection operators is LMMAX =           8
 
 POTCAR:    PAW_PBE N 08Apr2002                   
   SHA256 =  e053789ff3a61a86a1b75d8a110fcc91f86041011e7b0817c7c99e4e8a6349d7 N/POTCAR              
   COPYR  = (c) Copyright 08Apr2002 Georg Kresse                                                    
   COPYR  = This file is part of the software VASP. Any use, copying, and all other rights are regul
   COPYR  = If you do not have a valid VASP license, you may not use, copy or distribute this file. 
   VRHFIN =N: s2p3                                                                                  
   LEXCH  = PE                                                                                      
   EATOM  =   264.5486 eV,   19.4438 Ry                                                             
                                                                                                    
   TITEL  = PAW_PBE N 08Apr2002                                                                     
   LULTRA =        F    use ultrasoft PP ?                                                          
   IUNSCR =        1    unscreen: 0-lin 1-nonlin 2-no                                               
   RPACOR =    1.200    partial core radius                                                         
   POMASS =   14.001; ZVAL   =    5.000    mass and valenz                                          
   RCORE  =    1.500    outmost cutoff radius                                                       
   RWIGS  =    1.400; RWIGS  =    0.741    wigner-seitz radius (au A)                               
   ENMAX  =  400.000; ENMIN  =  300.000 eV                                                          
   ICORE  =        2    local potential                                                             
   LCOR   =        T    correct aug charges                                                         
   LPAW   =        T    paw PP                                                                      
   EAUG   =  627.112                                                                                
   DEXC   =    0.000                                                                                
   RMAX   =    1.529    core radius for proj-oper                                                   
   RAUG   =    1.300    factor for augmentation sphere                                              
   RDEP   =    1.514    radius for radial grids                                                     
   RDEPT  =    1.338    core radius for aug-charge                                                  
                                                                                                    
   Atomic configuration                                                                             
    4 entries                                                                                       
     n  l   j            E        occ.                                                              
     1  0  0.50      -384.7179   2.0000                                                             
     2  0  0.50       -18.5828   2.0000                                                             
     2  1  0.50        -7.0898   3.0000                                                             
     3  2  1.50        -6.8029   0.0000                                                             
   Description                                                                                      
     l       E           TYP  RCUT    TYP  RCUT                                                     
     0    -18.5828119     23  1.200                                                                 
     0    -13.5018863     23  1.200                                                                 
     1     -7.0897853     23  1.500                                                                 
     1      9.5240782     23  1.500                                                                 
     2     -6.8029130      7  1.500                                                                 
  local pseudopotential read in
  partial core-charges read in
  partial kinetic energy density read in
  atomic valenz-charges read in
  non local Contribution for L=           0  read in
    real space projection operators read in
  non local Contribution for L=           0  read in
    real space projection operators read in
  non local Contribution for L=           1  read in
    real space projection operators read in
  non local Contribution for L=           1  read in
    real space projection operators read in
    PAW grid and wavefunctions read in
 
   number of l-projection  operators is LMAX  =           4
   number of lm-projection operators is LMMAX =           8
 
 POTCAR:    PAW_PBE O 08Apr2002                   
   SHA256 =  818f92134a0a090dccd8ba1447fa70422a3b330e708bb4f08108d8ae51209ddf O/POTCAR              
   COPYR  = (c) Copyright 08Apr2002 Georg Kresse                                                    
   COPYR  = This file is part of the software VASP. Any use, copying, and all other rights are regul
   COPYR  = If you do not have a valid VASP license, you may not use, copy or distribute this file. 
   VRHFIN =O: s2p4                                                                                  
   LEXCH  = PE                                                                                      
   EATOM  =   432.3788 eV,   31.7789 Ry                                                             
                                                                                                    
   TITEL  = PAW_PBE O 08Apr2002                                                                     
   LULTRA =        F    use ultrasoft PP ?                                                          
   IUNSCR =        1    unscreen: 0-lin 1-nonlin 2-no                                               
   RPACOR =    1.200    partial core radius                                                         
   POMASS =   16.000; ZVAL   =    6.000    mass and valenz                                          
   RCORE  =    1.520    outmost cutoff radius                                                       
   RWIGS  =    1.550; RWIGS  =    0.820    wigner-seitz radius (au A)                               
   ENMAX  =  400.000; ENMIN  =  300.000 eV                                                          
   ICORE  =        2    local potential                                                             
   LCOR   =        T    correct aug charges                                                         
   LPAW   =        T    paw PP                                                                      
   EAUG   =  605.392                                                                                
   DEXC   =    0.000                                                                                
   RMAX   =    1.553    core radius for proj-oper                                                   
   RAUG   =    1.300    factor for augmentation sphere                                              
   RDEP   =    1.550    radius for radial grids                                                     
   RDEPT  =    1.329    core radius for aug-charge                                                  
                                                                                                    
   Atomic configuration                                                                             
    4 entries                                                                                       
     n  l   j            E        occ.                                                              
     1  0  0.50      -514.6923   2.0000                                                             
     2  0  0.50       -23.9615   2.0000                                                             
     2  1  0.50        -9.0305   4.0000                                                             
     3  2  1.50        -9.5241   0.0000                                                             
   Description                                                                                      
     l       E           TYP  RCUT    TYP  RCUT                                                     
     0    -23.9615318     23  1.200                                                                 
     0     -9.5240782     23  1.200                                                                 
     1     -9.0304911     23  1.520                                                                 
     1      8.1634956     23  1.520                                                                 
     2     -9.5240782      7  1.500                                                                 
  local pseudopotential read in
  partial core-charges read in
  partial kinetic energy density read in
  kinetic energy density of atom read in
  atomic valenz-charges read in
  non local Contribution for L=           0  read in
    real space projection operators read in
  non local Contribution for L=           0  read in
    real space projection operators read in
  non local Contribution for L=           1  read in
    real space projection operators read in
  non local Contribution for L=           1  read in
    real space projection operators read in
    PAW grid and wavefunctions read in
 
   number of l-projection  operators is LMAX  =           4
   number of lm-projection operators is LMMAX =           8
 
 Optimization of the real space projectors (new method)

 maximal supplied QI-value         = 16.25
 optimisation between [QCUT,QGAM] = [ 11.38, 22.75] = [ 36.24,144.96] Ry 
 Optimized for a Real-space Cutoff    1.31 Angstroem

   l    n(q)    QCUT    max X(q) W(low)/X(q) W(high)/X(q)  e(spline) 
   1      8    11.376     3.262    0.15E-03    0.36E-03    0.86E-07
   1      8    11.376     5.741    0.39E-03    0.84E-03    0.21E-06
   2      8    11.376    60.438    0.39E-03    0.55E-03    0.20E-06
   2      8    11.376    55.380    0.40E-03    0.57E-03    0.20E-06
   0      9    11.376    80.273    0.17E-03    0.16E-03    0.48E-07
   0      9    11.376    36.654    0.15E-03    0.14E-03    0.43E-07
 Optimization of the real space projectors (new method)

 maximal supplied QI-value         = 34.20
 optimisation between [QCUT,QGAM] = [ 11.29, 22.57] = [ 35.68,142.71] Ry 
 Optimized for a Real-space Cutoff    1.16 Angstroem

   l    n(q)    QCUT    max X(q) W(low)/X(q) W(high)/X(q)  e(spline) 
   0      8    11.287    19.460    0.40E-03    0.73E-03    0.16E-06
   0      8    11.287    12.209    0.38E-03    0.70E-03    0.15E-06
   1      7    11.287     4.655    0.22E-03    0.25E-04    0.22E-06
 Optimization of the real space projectors (new method)

 maximal supplied QI-value         = 25.13
 optimisation between [QCUT,QGAM] = [ 11.31, 22.87] = [ 35.82,146.48] Ry 
 Optimized for a Real-space Cutoff    1.00 Angstroem

   l    n(q)    QCUT    max X(q) W(low)/X(q) W(high)/X(q)  e(spline) 
   0      7    11.310   115.676    0.43E-03    0.13E-02    0.19E-06
   0      7    11.310    87.132    0.43E-03    0.13E-02    0.18E-06
   1      6    11.310     4.429    0.42E-03    0.74E-03    0.11E-06
   1      6    11.310     2.733    0.34E-03    0.55E-03    0.92E-07
 Optimization of the real space projectors (new method)

 maximal supplied QI-value         = 25.13
 optimisation between [QCUT,QGAM] = [ 11.31, 22.87] = [ 35.82,146.48] Ry 
 Optimized for a Real-space Cutoff    1.27 Angstroem

   l    n(q)    QCUT    max X(q) W(low)/X(q) W(high)/X(q)  e(spline) 
   0      9    11.310    79.467    0.75E-04    0.16E-03    0.36E-06
   0      9    11.310    66.151    0.74E-04    0.16E-03    0.36E-06
   1      8    11.310    17.416    0.35E-03    0.12E-03    0.95E-06
   1      8    11.310    12.382    0.37E-03    0.13E-03    0.98E-06
 Optimization of the real space projectors (new method)

 maximal supplied QI-value         = 24.76
 optimisation between [QCUT,QGAM] = [ 11.39, 22.77] = [ 36.31,145.25] Ry 
 Optimized for a Real-space Cutoff    1.00 Angstroem

   l    n(q)    QCUT    max X(q) W(low)/X(q) W(high)/X(q)  e(spline) 
   0      7    11.387    20.381    0.39E-03    0.13E-02    0.15E-06
   0      7    11.387    15.268    0.42E-03    0.14E-02    0.17E-06
   1      6    11.387     5.964    0.41E-03    0.11E-02    0.17E-06
   1      6    11.387     5.382    0.39E-03    0.87E-03    0.15E-06
  PAW_PBE Cr_pv 02Aug2007               :
 energy of atom  1       EATOM=-1647.9177
 kinetic energy error for atom=    0.0061 (will be added to EATOM!!)
  PAW_PBE H 15Jun2001                   :
 energy of atom  2       EATOM=  -12.4884
 kinetic energy error for atom=    0.0020 (will be added to EATOM!!)
  PAW_PBE C 08Apr2002                   :
 energy of atom  3       EATOM= -147.1560
 kinetic energy error for atom=    0.0076 (will be added to EATOM!!)
  PAW_PBE N 08Apr2002                   :
 energy of atom  4       EATOM= -264.5486
 kinetic energy error for atom=    0.0138 (will be added to EATOM!!)
  PAW_PBE O 08Apr2002                   :
 energy of atom  5       EATOM= -432.3788
 kinetic energy error for atom=    0.0224 (will be added to EATOM!!)
 
 
 POSCAR: Cr2 H24 C32 N16 O16
  positions in direct lattice
  No initial velocities read in
 exchange correlation table for  LEXCH =        8
   RHO(1)=    0.500       N(1)  =     2000
   RHO(2)=  100.500       N(2)  =     4000
 


--------------------------------------------------------------------------------------------------------


 ion  position               nearest neighbor table
   1  0.000  0.000  0.613-  81 1.80  78 1.80  79 1.80  76 1.80
   2  0.500  0.500  0.613-  82 1.80  77 1.80  80 1.80  75 1.80
   3  0.876  0.597  0.649-  51 1.10
   4  0.376  0.097  0.649-  52 1.10
   5  0.124  0.403  0.649-  53 1.10
   6  0.624  0.903  0.649-  54 1.10
   7  0.903  0.376  0.649-  55 1.10
   8  0.403  0.876  0.649-  56 1.10
   9  0.097  0.624  0.649-  57 1.10
  10  0.597  0.124  0.649-  58 1.10
  11  0.878  0.607  0.366-  51 1.10
  12  0.378  0.107  0.366-  52 1.10
  13  0.122  0.393  0.366-  53 1.10
  14  0.622  0.893  0.366-  54 1.10
  15  0.893  0.378  0.366-  55 1.10
  16  0.393  0.878  0.366-  56 1.10
  17  0.107  0.622  0.366-  57 1.10
  18  0.607  0.122  0.366-  58 1.10
  19  0.815  0.535  0.487-  51 1.10
  20  0.315  0.035  0.487-  52 1.10
  21  0.185  0.465  0.487-  53 1.10
  22  0.685  0.965  0.487-  54 1.10
  23  0.965  0.315  0.487-  55 1.10
  24  0.465  0.815  0.487-  56 1.10
  25  0.035  0.685  0.487-  57 1.10
  26  0.535  0.185  0.487-  58 1.10
  27  0.647  0.573  0.468-  83 1.22  75 1.35  35 1.48
  28  0.147  0.073  0.468-  84 1.22  76 1.35  36 1.48
  29  0.353  0.427  0.468-  85 1.22  77 1.35  37 1.48
  30  0.853  0.927  0.468-  86 1.22  78 1.35  38 1.48
  31  0.927  0.147  0.468-  87 1.22  79 1.35  39 1.48
  32  0.427  0.647  0.468-  88 1.22  80 1.35  40 1.48
  33  0.073  0.853  0.468-  89 1.22  81 1.35  41 1.48
  34  0.573  0.353  0.468-  90 1.22  82 1.35  42 1.48
  35  0.692  0.646  0.511-  60 1.37  43 1.40  27 1.48
  36  0.192  0.146  0.511-  59 1.37  44 1.40  28 1.48
  37  0.308  0.354  0.511-  62 1.37  45 1.40  29 1.48
  38  0.808  0.854  0.511-  61 1.37  46 1.40  30 1.48
  39  0.854  0.192  0.511-  64 1.37  47 1.40  31 1.48
  40  0.354  0.692  0.511-  63 1.37  48 1.40  32 1.48
  41  0.146  0.808  0.511-  66 1.37  49 1.40  33 1.48
  42  0.646  0.308  0.511-  65 1.37  50 1.40  34 1.48
  43  0.774  0.652  0.514-  69 1.37  35 1.40  51 1.48
  44  0.274  0.152  0.514-  70 1.37  36 1.40  52 1.48
  45  0.226  0.348  0.514-  67 1.37  37 1.40  53 1.48
  46  0.726  0.848  0.514-  68 1.37  38 1.40  54 1.48
  47  0.848  0.274  0.514-  73 1.37  39 1.40  55 1.48
  48  0.348  0.774  0.514-  74 1.37  40 1.40  56 1.48
  49  0.152  0.726  0.514-  71 1.37  41 1.40  57 1.48
  50  0.652  0.226  0.514-  72 1.37  42 1.40  58 1.48
  51  0.839  0.594  0.504-  19 1.10   3 1.10  11 1.10  43 1.48
  52  0.339  0.094  0.504-  20 1.10   4 1.10  12 1.10  44 1.48
  53  0.161  0.406  0.504-  21 1.10   5 1.10  13 1.10  45 1.48
  54  0.661  0.906  0.504-  22 1.10   6 1.10  14 1.10  46 1.48
  55  0.906  0.339  0.504-  23 1.10   7 1.10  15 1.10  47 1.48
  56  0.406  0.839  0.504-  24 1.10   8 1.10  16 1.10  48 1.48
  57  0.094  0.661  0.504-  25 1.10   9 1.10  17 1.10  49 1.48
  58  0.594  0.161  0.504-  26 1.10  10 1.10  18 1.10  50 1.48
  59  0.154  0.217  0.524-  67 1.33  36 1.37
  60  0.654  0.717  0.524-  68 1.33  35 1.37
  61  0.846  0.783  0.524-  69 1.33  38 1.37
  62  0.346  0.283  0.524-  70 1.33  37 1.37
  63  0.283  0.654  0.524-  71 1.33  40 1.37
  64  0.783  0.154  0.524-  72 1.33  39 1.37
  65  0.717  0.346  0.524-  73 1.33  42 1.37
  66  0.217  0.846  0.524-  74 1.33  41 1.37
  67  0.213  0.268  0.531-  59 1.33  45 1.37  70 1.39
  68  0.713  0.768  0.531-  60 1.33  46 1.37  69 1.39
  69  0.787  0.732  0.531-  61 1.33  43 1.37  68 1.39
  70  0.287  0.232  0.531-  62 1.33  44 1.37  67 1.39
  71  0.232  0.713  0.531-  63 1.33  49 1.37  74 1.39
  72  0.732  0.213  0.531-  64 1.33  50 1.37  73 1.39
  73  0.768  0.287  0.531-  65 1.33  47 1.37  72 1.39
  74  0.268  0.787  0.531-  66 1.33  48 1.37  71 1.39
  75  0.578  0.570  0.572-  27 1.35   2 1.80
  76  0.078  0.070  0.572-  28 1.35   1 1.80
  77  0.422  0.430  0.572-  29 1.35   2 1.80
  78  0.922  0.930  0.572-  30 1.35   1 1.80
  79  0.930  0.078  0.572-  31 1.35   1 1.80
  80  0.430  0.578  0.572-  32 1.35   2 1.80
  81  0.070  0.922  0.572-  33 1.35   1 1.80
  82  0.570  0.422  0.572-  34 1.35   2 1.80
  83  0.671  0.522  0.346-  27 1.22
  84  0.171  0.022  0.346-  28 1.22
  85  0.329  0.478  0.346-  29 1.22
  86  0.829  0.978  0.346-  30 1.22
  87  0.978  0.171  0.346-  31 1.22
  88  0.478  0.671  0.346-  32 1.22
  89  0.022  0.829  0.346-  33 1.22
  90  0.522  0.329  0.346-  34 1.22
 
  LATTYP: Found a simple tetragonal cell.
 ALAT       =    16.9809177528
 C/A-ratio  =     0.3672367867
  
  Lattice vectors:
  
 A1 = (  12.0073220997, -12.0073220878,   0.0000000000)
 A2 = (  12.0073220878,  12.0073220997,   0.0000000000)
 A3 = (  -0.0000000000,  -0.0000000000,   6.2360176707)


Analysis of symmetry for initial positions (statically):
=====================================================================
 Subroutine PRICEL returns following result:
 
  LATTYP: Found a simple tetragonal cell.
 ALAT       =    12.0073220938
 C/A-ratio  =     0.5193512444
  
  Lattice vectors:
  
 A1 = (   0.0000000059, -12.0073220938,   0.0000000000)
 A2 = (  12.0073220938,   0.0000000059,   0.0000000000)
 A3 = (   0.0000000000,   0.0000000000,   6.2360176707)
 
   2 primitive cells build up your supercell.
 

 Routine SETGRP: Setting up the symmetry group for a 
 simple tetragonal supercell.


 Subroutine GETGRP returns: Found  4 space group operations
 (whereof  4 operations were pure point group operations)
 out of a pool of 16 trial point group operations.


The static configuration has the point symmetry     .


Analysis of symmetry for dynamics (positions and initial velocities):
=====================================================================
 Subroutine PRICEL returns following result:
 
  LATTYP: Found a simple tetragonal cell.
 ALAT       =    12.0073220938
 C/A-ratio  =     0.5193512444
  
  Lattice vectors:
  
 A1 = (   0.0000000059, -12.0073220938,   0.0000000000)
 A2 = (  12.0073220938,   0.0000000059,   0.0000000000)
 A3 = (   0.0000000000,   0.0000000000,   6.2360176707)
 
   2 primitive cells build up your supercell.
 

 Routine SETGRP: Setting up the symmetry group for a 
 simple tetragonal supercell.


 Subroutine GETGRP returns: Found  4 space group operations
 (whereof  4 operations were pure point group operations)
 out of a pool of 16 trial point group operations.


The dynamic configuration has the point symmetry     .


Analysis of structural, dynamic, and magnetic symmetry:
=====================================================================
 Subroutine PRICEL returns:
 Original cell was already a primitive cell.
 

 Routine SETGRP: Setting up the symmetry group for a 
 simple tetragonal supercell.


 Subroutine GETGRP returns: Found  4 space group operations
 (whereof  2 operations were pure point group operations)
 out of a pool of 16 trial point group operations.


The overall configuration has the point symmetry C_2 .
 The point group associated with its full space group is C_2 .


 Subroutine INISYM returns: Found  4 space group operations
 (whereof  2 operations are pure point group operations),
 and found     1 'primitive' translations


----------------------------------------------------------------------------------------

                                     Primitive cell                                     

  volume of cell :    1798.1655

  direct lattice vectors                    reciprocal lattice vectors
    12.007322100-12.007322088  0.000000000     0.041641258 -0.041641258  0.000000000
    12.007322088 12.007322100  0.000000000     0.041641258  0.041641258  0.000000000
    -0.000000000 -0.000000000  6.236017671    -0.000000000 -0.000000000  0.160358750

  length of vectors
    16.980917753 16.980917753  6.236017671     0.058889632  0.058889632  0.160358750

  position of ions in fractional coordinates (direct lattice)
     0.000000000  0.000000000  0.613153054
     0.500000000  0.500000000  0.613153054
     0.876082347  0.597154356  0.649291518
     0.376082347  0.097154356  0.649291518
     0.123917653  0.402845644  0.649291518
     0.623917653  0.902845644  0.649291518
     0.902845644  0.376082347  0.649291518
     0.402845644  0.876082347  0.649291518
     0.097154356  0.623917653  0.649291518
     0.597154356  0.123917653  0.649291518
     0.877963266  0.606591077  0.366146198
     0.377963266  0.106591077  0.366146198
     0.122036734  0.393408923  0.366146198
     0.622036734  0.893408923  0.366146198
     0.893408923  0.377963266  0.366146198
     0.393408923  0.877963266  0.366146198
     0.106591077  0.622036734  0.366146198
     0.606591077  0.122036734  0.366146198
     0.814992481  0.535074117  0.487036583
     0.314992481  0.035074117  0.487036583
     0.185007519  0.464925883  0.487036583
     0.685007519  0.964925883  0.487036583
     0.964925883  0.314992481  0.487036583
     0.464925883  0.814992481  0.487036583
     0.035074117  0.685007519  0.487036583
     0.535074117  0.185007519  0.487036583
     0.647308820  0.573164863  0.467633049
     0.147308820  0.073164863  0.467633049
     0.352691180  0.426835137  0.467633049
     0.852691180  0.926835137  0.467633049
     0.926835137  0.147308820  0.467633049
     0.426835137  0.647308820  0.467633049
     0.073164863  0.852691180  0.467633049
     0.573164863  0.352691180  0.467633049
     0.691926071  0.646087773  0.510521972
     0.191926071  0.146087773  0.510521972
     0.308073929  0.353912227  0.510521972
     0.808073929  0.853912227  0.510521972
     0.853912227  0.191926071  0.510521972
     0.353912227  0.691926071  0.510521972
     0.146087773  0.808073929  0.510521972
     0.646087773  0.308073929  0.510521972
     0.774199323  0.652412308  0.514204103
     0.274199323  0.152412308  0.514204103
     0.225800677  0.347587692  0.514204103
     0.725800677  0.847587692  0.514204103
     0.847587692  0.274199323  0.514204103
     0.347587692  0.774199323  0.514204103
     0.152412308  0.725800677  0.514204103
     0.652412308  0.225800677  0.514204103
     0.839394707  0.594480582  0.504095725
     0.339394707  0.094480582  0.504095725
     0.160605293  0.405519418  0.504095725
     0.660605293  0.905519418  0.504095725
     0.905519418  0.339394707  0.504095725
     0.405519418  0.839394707  0.504095725
     0.094480582  0.660605293  0.504095725
     0.594480582  0.160605293  0.504095725
     0.154135702  0.217263301  0.523830512
     0.654135702  0.717263301  0.523830512
     0.845864298  0.782736699  0.523830512
     0.345864298  0.282736699  0.523830512
     0.282736699  0.654135702  0.523830512
     0.782736699  0.154135702  0.523830512
     0.717263301  0.345864298  0.523830512
     0.217263301  0.845864298  0.523830512
     0.213327687  0.268096008  0.530701367
     0.713327687  0.768096008  0.530701367
     0.786672313  0.731903992  0.530701367
     0.286672313  0.231903992  0.530701367
     0.231903992  0.713327687  0.530701367
     0.731903992  0.213327687  0.530701367
     0.768096008  0.286672313  0.530701367
     0.268096008  0.786672313  0.530701367
     0.577959119  0.570188351  0.571954489
     0.077959119  0.070188351  0.571954489
     0.422040881  0.429811649  0.571954489
     0.922040881  0.929811649  0.571954489
     0.929811649  0.077959119  0.571954489
     0.429811649  0.577959119  0.571954489
     0.070188351  0.922040881  0.571954489
     0.570188351  0.422040881  0.571954489
     0.670781149  0.521815805  0.346286220
     0.170781149  0.021815805  0.346286220
     0.329218851  0.478184195  0.346286220
     0.829218851  0.978184195  0.346286220
     0.978184195  0.170781149  0.346286220
     0.478184195  0.670781149  0.346286220
     0.021815805  0.829218851  0.346286220
     0.521815805  0.329218851  0.346286220

  ion indices of the primitive-cell ions
   primitive index   ion index
                 1           1
                 2           2
                 3           3
                 4           4
                 5           5
                 6           6
                 7           7
                 8           8
                 9           9
                10          10
                11          11
                12          12
                13          13
                14          14
                15          15
                16          16
                17          17
                18          18
                19          19
                20          20
                21          21
                22          22
                23          23
                24          24
                25          25
                26          26
                27          27
                28          28
                29          29
                30          30
                31          31
                32          32
                33          33
                34          34
                35          35
                36          36
                37          37
                38          38
                39          39
                40          40
                41          41
                42          42
                43          43
                44          44
                45          45
                46          46
                47          47
                48          48
                49          49
                50          50
                51          51
                52          52
                53          53
                54          54
                55          55
                56          56
                57          57
                58          58
                59          59
                60          60
                61          61
                62          62
                63          63
                64          64
                65          65
                66          66
                67          67
                68          68
                69          69
                70          70
                71          71
                72          72
                73          73
                74          74
                75          75
                76          76
                77          77
                78          78
                79          79
                80          80
                81          81
                82          82
                83          83
                84          84
                85          85
                86          86
                87          87
                88          88
                89          89
                90          90

----------------------------------------------------------------------------------------

 
 
 KPOINTS: K-Path Generated by VASPKIT.            

Interpolating k-points between supplied coordinates.

 Line segments in fractional coordinates (reciprocal lattice):
    0.000000  0.000000  0.000000  ...  0.500000  0.000000  0.000000
    0.500000  0.000000  0.000000  ...  0.500000  0.500000  0.000000
    0.500000  0.500000  0.000000  ...  0.000000  0.000000  0.000000
    0.000000  0.000000  0.000000  ... -0.500000  0.500000  0.000000
   -0.500000  0.500000  0.000000  ...  0.000000  0.500000  0.000000
    0.000000  0.500000  0.000000  ...  0.000000  0.000000  0.000000

 Generated    10 points on each line segment, for a total of     60 k-points:

 Following reciprocal coordinates:
            Coordinates               Weight
  0.000000  0.000000  0.000000      0.016667
  0.055556  0.000000  0.000000      0.016667
  0.111111  0.000000  0.000000      0.016667
  0.166667  0.000000  0.000000      0.016667
  0.222222  0.000000  0.000000      0.016667
  0.277778  0.000000  0.000000      0.016667
  0.333333  0.000000  0.000000      0.016667
  0.388889  0.000000  0.000000      0.016667
  0.444444  0.000000  0.000000      0.016667
  0.500000  0.000000  0.000000      0.016667
  0.500000  0.000000  0.000000      0.016667
  0.500000  0.055556  0.000000      0.016667
  0.500000  0.111111  0.000000      0.016667
  0.500000  0.166667  0.000000      0.016667
  0.500000  0.222222  0.000000      0.016667
  0.500000  0.277778  0.000000      0.016667
  0.500000  0.333333  0.000000      0.016667
  0.500000  0.388889  0.000000      0.016667
  0.500000  0.444444  0.000000      0.016667
  0.500000  0.500000  0.000000      0.016667
  0.500000  0.500000  0.000000      0.016667
  0.444444  0.444444  0.000000      0.016667
  0.388889  0.388889  0.000000      0.016667
  0.333333  0.333333  0.000000      0.016667
  0.277778  0.277778  0.000000      0.016667
  0.222222  0.222222  0.000000      0.016667
  0.166667  0.166667  0.000000      0.016667
  0.111111  0.111111  0.000000      0.016667
  0.055556  0.055556  0.000000      0.016667
  0.000000  0.000000  0.000000      0.016667
  0.000000  0.000000  0.000000      0.016667
 -0.055556  0.055556  0.000000      0.016667
 -0.111111  0.111111  0.000000      0.016667
 -0.166667  0.166667  0.000000      0.016667
 -0.222222  0.222222  0.000000      0.016667
 -0.277778  0.277778  0.000000      0.016667
 -0.333333  0.333333  0.000000      0.016667
 -0.388889  0.388889  0.000000      0.016667
 -0.444444  0.444444  0.000000      0.016667
 -0.500000  0.500000  0.000000      0.016667
 -0.500000  0.500000  0.000000      0.016667
 -0.444444  0.500000  0.000000      0.016667
 -0.388889  0.500000  0.000000      0.016667
 -0.333333  0.500000  0.000000      0.016667
 -0.277778  0.500000  0.000000      0.016667
 -0.222222  0.500000  0.000000      0.016667
 -0.166667  0.500000  0.000000      0.016667
 -0.111111  0.500000  0.000000      0.016667
 -0.055556  0.500000  0.000000      0.016667
 -0.000000  0.500000  0.000000      0.016667
  0.000000  0.500000  0.000000      0.016667
  0.000000  0.444444  0.000000      0.016667
  0.000000  0.388889  0.000000      0.016667
  0.000000  0.333333  0.000000      0.016667
  0.000000  0.277778  0.000000      0.016667
  0.000000  0.222222  0.000000      0.016667
  0.000000  0.166667  0.000000      0.016667
  0.000000  0.111111  0.000000      0.016667
  0.000000  0.055556  0.000000      0.016667
  0.000000  0.000000  0.000000      0.016667

 Following cartesian coordinates:
            Coordinates               Weight
  0.000000  0.000000  0.000000      0.016667
  0.002313 -0.002313  0.000000      0.016667
  0.004627 -0.004627  0.000000      0.016667
  0.006940 -0.006940  0.000000      0.016667
  0.009254 -0.009254  0.000000      0.016667
  0.011567 -0.011567  0.000000      0.016667
  0.013880 -0.013880  0.000000      0.016667
  0.016194 -0.016194  0.000000      0.016667
  0.018507 -0.018507  0.000000      0.016667
  0.020821 -0.020821  0.000000      0.016667
  0.020821 -0.020821  0.000000      0.016667
  0.023134 -0.018507  0.000000      0.016667
  0.025447 -0.016194  0.000000      0.016667
  0.027761 -0.013880  0.000000      0.016667
  0.030074 -0.011567  0.000000      0.016667
  0.032388 -0.009254  0.000000      0.016667
  0.034701 -0.006940  0.000000      0.016667
  0.037014 -0.004627  0.000000      0.016667
  0.039328 -0.002313  0.000000      0.016667
  0.041641  0.000000  0.000000      0.016667
  0.041641  0.000000  0.000000      0.016667
  0.037014  0.000000  0.000000      0.016667
  0.032388  0.000000  0.000000      0.016667
  0.027761  0.000000  0.000000      0.016667
  0.023134  0.000000  0.000000      0.016667
  0.018507  0.000000  0.000000      0.016667
  0.013880  0.000000  0.000000      0.016667
  0.009254  0.000000  0.000000      0.016667
  0.004627  0.000000  0.000000      0.016667
  0.000000  0.000000  0.000000      0.016667
  0.000000  0.000000  0.000000      0.016667
 -0.000000  0.004627  0.000000      0.016667
 -0.000000  0.009254  0.000000      0.016667
 -0.000000  0.013880  0.000000      0.016667
 -0.000000  0.018507  0.000000      0.016667
 -0.000000  0.023134  0.000000      0.016667
 -0.000000  0.027761  0.000000      0.016667
 -0.000000  0.032388  0.000000      0.016667
 -0.000000  0.037014  0.000000      0.016667
 -0.000000  0.041641  0.000000      0.016667
 -0.000000  0.041641  0.000000      0.016667
  0.002313  0.039328  0.000000      0.016667
  0.004627  0.037014  0.000000      0.016667
  0.006940  0.034701  0.000000      0.016667
  0.009254  0.032388  0.000000      0.016667
  0.011567  0.030074  0.000000      0.016667
  0.013880  0.027761  0.000000      0.016667
  0.016194  0.025447  0.000000      0.016667
  0.018507  0.023134  0.000000      0.016667
  0.020821  0.020821  0.000000      0.016667
  0.020821  0.020821  0.000000      0.016667
  0.018507  0.018507  0.000000      0.016667
  0.016194  0.016194  0.000000      0.016667
  0.013880  0.013880  0.000000      0.016667
  0.011567  0.011567  0.000000      0.016667
  0.009254  0.009254  0.000000      0.016667
  0.006940  0.006940  0.000000      0.016667
  0.004627  0.004627  0.000000      0.016667
  0.002313  0.002313  0.000000      0.016667
  0.000000  0.000000  0.000000      0.016667
 


--------------------------------------------------------------------------------------------------------




 Dimension of arrays:
   k-points           NKPTS =     60   k-points in BZ     NKDIM =     60   number of bands    NBANDS=    224
   number of dos      NEDOS =    301   number of ions     NIONS =     90
   non local maximal  LDIM  =      6   non local SUM 2l+1 LMDIM =     18
   total plane-waves  NPLWV = 331776
   max r-space proj   IRMAX =   1787   max aug-charges    IRDMAX=   6619
   dimension x,y,z NGX =    96 NGY =   96 NGZ =   36
   dimension x,y,z NGXF=   192 NGYF=  192 NGZF=   72
   support grid    NGXF=   192 NGYF=  192 NGZF=   72
   ions per type =               2  24  32  16  16
   NGX,Y,Z   is equivalent  to a cutoff of   9.40,  9.40,  9.60 a.u.
   NGXF,Y,Z  is equivalent  to a cutoff of  18.80, 18.80, 19.19 a.u.

 SYSTEM =  unknown system                          
 POSCAR =  Cr2 H24 C32 N16 O16                     

 Startparameter for this run:
   NWRITE =      2    write-flag & timer
   PREC   = normal    normal or accurate (medium, high low for compatibility)
   ISTART =      0    job   : 0-new  1-cont  2-samecut
   ICHARG =     11    charge: 1-file 2-atom 10-const
   ISPIN  =      2    spin polarized calculation?
   LNONCOLLINEAR =      F non collinear calculations
   LSORBIT =      F    spin-orbit coupling
   INIWAV =      1    electr: 0-lowe 1-rand  2-diag
   LASPH  =      F    aspherical Exc in radial PAW
 Electronic Relaxation 1
   ENCUT  =  500.0 eV  36.75 Ry    6.06 a.u.  30.96 30.96 11.37*2*pi/ulx,y,z
   ENINI  =  500.0     initial cutoff
   ENAUG  =  644.9 eV  augmentation charge cutoff
   NELM   =    200;   NELMIN=  2; NELMDL=  0     # of ELM steps 
   EDIFF  = 0.1E-04   stopping-criterion for ELM
   LREAL  =      T    real-space projection
   NLSPLINE    = F    spline interpolate recip. space projectors
   LCOMPAT=      F    compatible to vasp.4.4
   GGA_COMPAT  = T    GGA compatible to vasp.4.4-vasp.4.6
   LMAXPAW     = -100 max onsite density
   LMAXMIX     =    4 max onsite mixed and CHGCAR
   VOSKOWN=      0    Vosko Wilk Nusair interpolation
   ROPT   =   -0.00050  -0.00050  -0.00050  -0.00050
   ROPT   =   -0.00050
 Ionic relaxation
   EDIFFG = -.1E-01   stopping-criterion for IOM
   NSW    =      0    number of steps for IOM
   NBLOCK =      1;   KBLOCK =      1    inner block; outer block 
   IBRION =     -1    ionic relax: 0-MD 1-quasi-New 2-CG
   NFREE  =      0    steps in history (QN), initial steepest desc. (CG)
   ISIF   =      2    stress and relaxation
   IWAVPR =     10    prediction:  0-non 1-charg 2-wave 3-comb
   ISYM   =      2    0-nonsym 1-usesym 2-fastsym
   LCORR  =      T    Harris-Foulkes like correction to forces

   POTIM  = 0.5000    time-step for ionic-motion
   TEIN   =    0.0    initial temperature
   TEBEG  =    0.0;   TEEND  =   0.0 temperature during run
   SMASS  =  -3.00    Nose mass-parameter (am)
   estimated Nose-frequenzy (Omega)   =  0.10E-29 period in steps = 0.13E+47 mass=  -0.659E-26a.u.
   SCALEE = 1.0000    scale energy and forces
   NPACO  =    256;   APACO  = 10.0  distance and # of slots for P.C.
   PSTRESS=    0.0 pullay stress

  Mass of Ions in am
   POMASS =  52.00  1.00 12.01 14.00 16.00
  Ionic Valenz
   ZVAL   =  12.00  1.00  4.00  5.00  6.00
  Atomic Wigner-Seitz radii
   RWIGS  =  -1.00 -1.00 -1.00 -1.00 -1.00
  virtual crystal weights 
   VCA    =   1.00  1.00  1.00  1.00  1.00
   NELECT =     352.0000    total number of electrons
   NUPDOWN=      -1.0000    fix difference up-down

 DOS related values:
   EMIN   =  10.00;   EMAX   =-10.00  energy-range for DOS
   EFERMI =   0.00
   ISMEAR =     1;   SIGMA  =   0.20  broadening in eV -4-tet -1-fermi 0-gaus

 Electronic relaxation 2 (details)
   IALGO  =     68    algorithm
   LDIAG  =      T    sub-space diagonalisation (order eigenvalues)
   LSUBROT=      F    optimize rotation matrix (better conditioning)
   TURBO    =      0    0=normal 1=particle mesh
   IRESTART =      0    0=no restart 2=restart with 2 vectors
   NREBOOT  =      0    no. of reboots
   NMIN     =      0    reboot dimension
   EREF     =   0.00    reference energy to select bands
   IMIX   =      4    mixing-type and parameters
     AMIX     =   0.20;   BMIX     =  0.00
     AMIX_MAG =   0.80;   BMIX_MAG =  0.00
     AMIN     =   0.10
     WC   =   100.;   INIMIX=   1;  MIXPRE=   1;  MAXMIX= -45

 Intra band minimization:
   WEIMIN = 0.0000     energy-eigenvalue tresh-hold
   EBREAK =  0.11E-07  absolut break condition
   DEPER  =   0.30     relativ break condition  

   TIME   =   0.40     timestep for ELM

  volume/ion in A,a.u.               =      19.98       134.83
  Fermi-wavevector in a.u.,A,eV,Ry     =   0.950559  1.796296 12.293718  0.903563
  Thomas-Fermi vector in A             =   2.078947
 
 Write flags
   LWAVE        =      F    write WAVECAR
   LDOWNSAMPLE  =      F    k-point downsampling of WAVECAR
   LCHARG       =      F    write CHGCAR
   LVTOT        =      T    write LOCPOT, total local potential
   LVHAR        =      F    write LOCPOT, Hartree potential only
   LELF         =      F    write electronic localiz. function (ELF)
   LORBIT       =     11    0 simple, 1 ext, 2 COOP (PROOUT), +10 PAW based schemes


 Dipole corrections
   LMONO  =      F    monopole corrections only (constant potential shift)
   LDIPOL =      F    correct potential (dipole corrections)
   IDIPOL =      0    1-x, 2-y, 3-z, 4-all directions 
   EPSILON=  1.0000000 bulk dielectric constant

 LDA+U is selected, type is set to LDAUTYPE =  2
   angular momentum for each species LDAUL =     2   -1   -1   -1   -1
   U (eV)           for each species LDAUU =   3.0  0.0  0.0  0.0  0.0
   J (eV)           for each species LDAUJ =   1.0  0.0  0.0  0.0  0.0
 Exchange correlation treatment:
   GGA     =    --    GGA type
   LEXCH   =     8    internal setting for exchange type
   LIBXC   =     F    Libxc                    
   VOSKOWN =     0    Vosko Wilk Nusair interpolation
   LHFCALC =     F    Hartree Fock is set to
   LHFONE  =     F    Hartree Fock one center treatment
   AEXX    =    0.0000 exact exchange contribution

 Linear response parameters
   LEPSILON=     F    determine dielectric tensor
   LRPA    =     F    only Hartree local field effects (RPA)
   LNABLA  =     F    use nabla operator in PAW spheres
   LVEL    =     F    velocity operator in full k-point grid
   CSHIFT  =0.1000    complex shift for real part using Kramers Kronig
   OMEGAMAX=  -1.0    maximum frequency
   DEG_THRESHOLD= 0.2000000E-02 threshold for treating states as degnerate
   RTIME   =   -0.100 relaxation time in fs
  (WPLASMAI=    0.000 imaginary part of plasma frequency in eV, 0.658/RTIME)
   DFIELD  = 0.0000000 0.0000000 0.0000000 field for delta impulse in time
 
  Optional k-point grid parameters
   LKPOINTS_OPT  =     F    use optional k-point grid
   KPOINTS_OPT_MODE=     1    mode for optional k-point grid
 
 Orbital magnetization related:
   ORBITALMAG=     F  switch on orbital magnetization
   LCHIMAG   =     F  perturbation theory with respect to B field
   DQ        =  0.001000  dq finite difference perturbation B field
   LLRAUG    =     F  two centre corrections for induced B field



--------------------------------------------------------------------------------------------------------


 Static calculation
 charge density and potential remain constant during run
 spin polarized calculation
 RMM-DIIS sequential band-by-band and
  variant of blocked Davidson during initial phase
 perform sub-space diagonalisation
    before iterative eigenvector-optimisation
 no mixing
 using additional bands           48
 real space projection scheme for non local part
 use partial core corrections
 calculate Harris-corrections to forces 
   (improved forces if not selfconsistent)
 use gradient corrections 
 WARNING: stress and forces are not correct
  (second derivative of E(xc) not defined)
 use of overlap-Matrix (Vanderbilt PP)
 Methfessel and Paxton  Order N= 1 SIGMA  =   0.20


--------------------------------------------------------------------------------------------------------


  energy-cutoff  :      500.00
  volume of cell :     1798.17
      direct lattice vectors                 reciprocal lattice vectors
    12.007322100-12.007322088  0.000000000     0.041641258 -0.041641258  0.000000000
    12.007322088 12.007322100  0.000000000     0.041641258  0.041641258  0.000000000
    -0.000000000 -0.000000000  6.236017671    -0.000000000 -0.000000000  0.160358750

  length of vectors
    16.980917753 16.980917753  6.236017671     0.058889632  0.058889632  0.160358750


 
 k-points in units of 2pi/SCALE and weight: K-Path Generated by VASPKIT.            
   0.00000000  0.00000000  0.00000000       0.017
   0.00231340 -0.00231340  0.00000000       0.017
   0.00462681 -0.00462681  0.00000000       0.017
   0.00694021 -0.00694021  0.00000000       0.017
   0.00925361 -0.00925361  0.00000000       0.017
   0.01156702 -0.01156702  0.00000000       0.017
   0.01388042 -0.01388042  0.00000000       0.017
   0.01619382 -0.01619382  0.00000000       0.017
   0.01850723 -0.01850723  0.00000000       0.017
   0.02082063 -0.02082063  0.00000000       0.017
   0.02082063 -0.02082063  0.00000000       0.017
   0.02313403 -0.01850723  0.00000000       0.017
   0.02544744 -0.01619382  0.00000000       0.017
   0.02776084 -0.01388042  0.00000000       0.017
   0.03007424 -0.01156702  0.00000000       0.017
   0.03238765 -0.00925361  0.00000000       0.017
   0.03470105 -0.00694021  0.00000000       0.017
   0.03701445 -0.00462681  0.00000000       0.017
   0.03932785 -0.00231340  0.00000000       0.017
   0.04164126  0.00000000  0.00000000       0.017
   0.04164126  0.00000000  0.00000000       0.017
   0.03701445  0.00000000  0.00000000       0.017
   0.03238765  0.00000000  0.00000000       0.017
   0.02776084  0.00000000  0.00000000       0.017
   0.02313403  0.00000000  0.00000000       0.017
   0.01850723  0.00000000  0.00000000       0.017
   0.01388042  0.00000000  0.00000000       0.017
   0.00925361  0.00000000  0.00000000       0.017
   0.00462681  0.00000000  0.00000000       0.017
   0.00000000  0.00000000  0.00000000       0.017
   0.00000000  0.00000000  0.00000000       0.017
  -0.00000000  0.00462681  0.00000000       0.017
  -0.00000000  0.00925361  0.00000000       0.017
  -0.00000000  0.01388042  0.00000000       0.017
  -0.00000000  0.01850723  0.00000000       0.017
  -0.00000000  0.02313403  0.00000000       0.017
  -0.00000000  0.02776084  0.00000000       0.017
  -0.00000000  0.03238765  0.00000000       0.017
  -0.00000000  0.03701445  0.00000000       0.017
  -0.00000000  0.04164126  0.00000000       0.017
  -0.00000000  0.04164126  0.00000000       0.017
   0.00231340  0.03932785  0.00000000       0.017
   0.00462681  0.03701445  0.00000000       0.017
   0.00694021  0.03470105  0.00000000       0.017
   0.00925361  0.03238765  0.00000000       0.017
   0.01156702  0.03007424  0.00000000       0.017
   0.01388042  0.02776084  0.00000000       0.017
   0.01619382  0.02544744  0.00000000       0.017
   0.01850723  0.02313403  0.00000000       0.017
   0.02082063  0.02082063  0.00000000       0.017
   0.02082063  0.02082063  0.00000000       0.017
   0.01850723  0.01850723  0.00000000       0.017
   0.01619382  0.01619382  0.00000000       0.017
   0.01388042  0.01388042  0.00000000       0.017
   0.01156702  0.01156702  0.00000000       0.017
   0.00925361  0.00925361  0.00000000       0.017
   0.00694021  0.00694021  0.00000000       0.017
   0.00462681  0.00462681  0.00000000       0.017
   0.00231340  0.00231340  0.00000000       0.017
   0.00000000  0.00000000  0.00000000       0.017
 
 k-points in reciprocal lattice and weights: K-Path Generated by VASPKIT.            
   0.00000000  0.00000000  0.00000000       0.017
   0.05555556  0.00000000  0.00000000       0.017
   0.11111111  0.00000000  0.00000000       0.017
   0.16666667  0.00000000  0.00000000       0.017
   0.22222222  0.00000000  0.00000000       0.017
   0.27777778  0.00000000  0.00000000       0.017
   0.33333333  0.00000000  0.00000000       0.017
   0.38888889  0.00000000  0.00000000       0.017
   0.44444444  0.00000000  0.00000000       0.017
   0.50000000  0.00000000  0.00000000       0.017
   0.50000000  0.00000000  0.00000000       0.017
   0.50000000  0.05555556  0.00000000       0.017
   0.50000000  0.11111111  0.00000000       0.017
   0.50000000  0.16666667  0.00000000       0.017
   0.50000000  0.22222222  0.00000000       0.017
   0.50000000  0.27777778  0.00000000       0.017
   0.50000000  0.33333333  0.00000000       0.017
   0.50000000  0.38888889  0.00000000       0.017
   0.50000000  0.44444444  0.00000000       0.017
   0.50000000  0.50000000  0.00000000       0.017
   0.50000000  0.50000000  0.00000000       0.017
   0.44444444  0.44444444  0.00000000       0.017
   0.38888889  0.38888889  0.00000000       0.017
   0.33333333  0.33333333  0.00000000       0.017
   0.27777778  0.27777778  0.00000000       0.017
   0.22222222  0.22222222  0.00000000       0.017
   0.16666667  0.16666667  0.00000000       0.017
   0.11111111  0.11111111  0.00000000       0.017
   0.05555556  0.05555556  0.00000000       0.017
   0.00000000  0.00000000  0.00000000       0.017
   0.00000000  0.00000000  0.00000000       0.017
  -0.05555556  0.05555556  0.00000000       0.017
  -0.11111111  0.11111111  0.00000000       0.017
  -0.16666667  0.16666667  0.00000000       0.017
  -0.22222222  0.22222222  0.00000000       0.017
  -0.27777778  0.27777778  0.00000000       0.017
  -0.33333333  0.33333333  0.00000000       0.017
  -0.38888889  0.38888889  0.00000000       0.017
  -0.44444444  0.44444444  0.00000000       0.017
  -0.50000000  0.50000000  0.00000000       0.017
  -0.50000000  0.50000000  0.00000000       0.017
  -0.44444444  0.50000000  0.00000000       0.017
  -0.38888889  0.50000000  0.00000000       0.017
  -0.33333333  0.50000000  0.00000000       0.017
  -0.27777778  0.50000000  0.00000000       0.017
  -0.22222222  0.50000000  0.00000000       0.017
  -0.16666667  0.50000000  0.00000000       0.017
  -0.11111111  0.50000000  0.00000000       0.017
  -0.05555556  0.50000000  0.00000000       0.017
  -0.00000000  0.50000000  0.00000000       0.017
   0.00000000  0.50000000  0.00000000       0.017
   0.00000000  0.44444444  0.00000000       0.017
   0.00000000  0.38888889  0.00000000       0.017
   0.00000000  0.33333333  0.00000000       0.017
   0.00000000  0.27777778  0.00000000       0.017
   0.00000000  0.22222222  0.00000000       0.017
   0.00000000  0.16666667  0.00000000       0.017
   0.00000000  0.11111111  0.00000000       0.017
   0.00000000  0.05555556  0.00000000       0.017
   0.00000000  0.00000000  0.00000000       0.017
 
 position of ions in fractional coordinates (direct lattice) 
   0.00000000  0.00000000  0.61315305
   0.50000000  0.50000000  0.61315305
   0.87608235  0.59715436  0.64929152
   0.37608235  0.09715436  0.64929152
   0.12391765  0.40284564  0.64929152
   0.62391765  0.90284564  0.64929152
   0.90284564  0.37608235  0.64929152
   0.40284564  0.87608235  0.64929152
   0.09715436  0.62391765  0.64929152
   0.59715436  0.12391765  0.64929152
   0.87796327  0.60659108  0.36614620
   0.37796327  0.10659108  0.36614620
   0.12203673  0.39340892  0.36614620
   0.62203673  0.89340892  0.36614620
   0.89340892  0.37796327  0.36614620
   0.39340892  0.87796327  0.36614620
   0.10659108  0.62203673  0.36614620
   0.60659108  0.12203673  0.36614620
   0.81499248  0.53507412  0.48703658
   0.31499248  0.03507412  0.48703658
   0.18500752  0.46492588  0.48703658
   0.68500752  0.96492588  0.48703658
   0.96492588  0.31499248  0.48703658
   0.46492588  0.81499248  0.48703658
   0.03507412  0.68500752  0.48703658
   0.53507412  0.18500752  0.48703658
   0.64730882  0.57316486  0.46763305
   0.14730882  0.07316486  0.46763305
   0.35269118  0.42683514  0.46763305
   0.85269118  0.92683514  0.46763305
   0.92683514  0.14730882  0.46763305
   0.42683514  0.64730882  0.46763305
   0.07316486  0.85269118  0.46763305
   0.57316486  0.35269118  0.46763305
   0.69192607  0.64608777  0.51052197
   0.19192607  0.14608777  0.51052197
   0.30807393  0.35391223  0.51052197
   0.80807393  0.85391223  0.51052197
   0.85391223  0.19192607  0.51052197
   0.35391223  0.69192607  0.51052197
   0.14608777  0.80807393  0.51052197
   0.64608777  0.30807393  0.51052197
   0.77419932  0.65241231  0.51420410
   0.27419932  0.15241231  0.51420410
   0.22580068  0.34758769  0.51420410
   0.72580068  0.84758769  0.51420410
   0.84758769  0.27419932  0.51420410
   0.34758769  0.77419932  0.51420410
   0.15241231  0.72580068  0.51420410
   0.65241231  0.22580068  0.51420410
   0.83939471  0.59448058  0.50409573
   0.33939471  0.09448058  0.50409573
   0.16060529  0.40551942  0.50409573
   0.66060529  0.90551942  0.50409573
   0.90551942  0.33939471  0.50409573
   0.40551942  0.83939471  0.50409573
   0.09448058  0.66060529  0.50409573
   0.59448058  0.16060529  0.50409573
   0.15413570  0.21726330  0.52383051
   0.65413570  0.71726330  0.52383051
   0.84586430  0.78273670  0.52383051
   0.34586430  0.28273670  0.52383051
   0.28273670  0.65413570  0.52383051
   0.78273670  0.15413570  0.52383051
   0.71726330  0.34586430  0.52383051
   0.21726330  0.84586430  0.52383051
   0.21332769  0.26809601  0.53070137
   0.71332769  0.76809601  0.53070137
   0.78667231  0.73190399  0.53070137
   0.28667231  0.23190399  0.53070137
   0.23190399  0.71332769  0.53070137
   0.73190399  0.21332769  0.53070137
   0.76809601  0.28667231  0.53070137
   0.26809601  0.78667231  0.53070137
   0.57795912  0.57018835  0.57195449
   0.07795912  0.07018835  0.57195449
   0.42204088  0.42981165  0.57195449
   0.92204088  0.92981165  0.57195449
   0.92981165  0.07795912  0.57195449
   0.42981165  0.57795912  0.57195449
   0.07018835  0.92204088  0.57195449
   0.57018835  0.42204088  0.57195449
   0.67078115  0.52181580  0.34628622
   0.17078115  0.02181580  0.34628622
   0.32921885  0.47818420  0.34628622
   0.82921885  0.97818420  0.34628622
   0.97818420  0.17078115  0.34628622
   0.47818420  0.67078115  0.34628622
   0.02181580  0.82921885  0.34628622
   0.52181580  0.32921885  0.34628622
 
 position of ions in cartesian coordinates  (Angst):
  -0.00000000 -0.00000000  3.82363328
  12.00732209  0.00000001  3.82363328
  17.68962762 -3.34917823  4.04899338
   5.68230552 -3.34917823  4.04899338
   6.32501657  3.34917824  4.04899338
  18.33233867  3.34917824  4.04899338
  15.35650033 -6.32501657  4.04899338
  15.35650032  5.68230553  4.04899338
   8.65814386  6.32501658  4.04899338
   8.65814386 -5.68230552  4.04899338
  17.82552217 -3.25845327  2.28329416
   5.81820008 -3.25845327  2.28329416
   6.18912202  3.25845328  2.28329416
  18.19644411  3.25845328  2.28329416
  15.26577537 -6.18912201  2.28329416
  15.26577536  5.81820008  2.28329416
   8.74886882  6.18912202  2.28329416
   8.74886882 -5.81820007  2.28329416
  16.21068450 -3.36106995  3.03716874
   4.20336240 -3.36106995  3.03716874
   7.80395969  3.36106996  3.03716874
  19.81128179  3.36106996  3.03716874
  15.36839205 -7.80395969  3.03716874
  15.36839205  4.20336241  3.03716874
   8.64625214  7.80395970  3.03716874
   8.64625214 -4.20336240  3.03716874
  14.65462062 -0.89027036  2.91616796
   2.64729853 -0.89027037  2.91616796
   9.36002357  0.89027037  2.91616796
  21.36734566  0.89027038  2.91616796
  12.89759247 -9.36002356  2.91616796
  12.89759246  2.64729853  2.91616796
  11.11705172  9.36002357  2.91616796
  11.11705173 -2.64729852  2.91616796
  16.06596320 -0.55039520  3.18362404
   4.05864111 -0.55039521  3.18362404
   7.94868099  0.55039521  3.18362404
  19.95600308  0.55039522  3.18362404
  12.55771731 -7.94868098  3.18362404
  12.55771730  4.05864111  3.18362404
  11.45692688  7.94868099  3.18362404
  11.45692688 -4.05864110  3.18362404
  17.12978536 -1.46233591  3.20658587
   5.12246326 -1.46233591  3.20658587
   6.88485883  1.46233592  3.20658587
  18.89218093  1.46233593  3.20658587
  13.46965801 -6.88485883  3.20658587
  13.46965801  5.12246327  3.20658587
  10.54498617  6.88485884  3.20658587
  10.54498618 -5.12246326  3.20658587
  17.21700243 -2.94076277  3.14354985
   5.20968034 -2.94076278  3.14354985
   6.79764176  2.94076278  3.14354985
  18.80496385  2.94076279  3.14354985
  14.94808488 -6.79764175  3.14354985
  14.94808487  5.20968034  3.14354985
   9.06655931  6.79764176  3.14354985
   9.06655932 -5.20968033  3.14354985
   4.45950745  0.75799342  3.26661633
  16.46682954  0.75799342  3.26661633
  19.55513674 -0.75799341  3.26661633
   7.54781465 -0.75799341  3.26661633
  11.24932868  4.45950745  3.26661633
  11.24932868 -7.54781464  3.26661633
  12.76531551 -4.45950744  3.26661633
  12.76531550  7.54781465  3.26661633
   5.78060937  0.65762087  3.30946311
  17.78793147  0.65762088  3.30946311
  18.23403481 -0.65762086  3.30946311
   6.22671272 -0.65762087  3.30946311
  11.34970122  5.78060938  3.30946311
  11.34970123 -6.22671271  3.30946311
  12.66494296 -5.78060937  3.30946311
  12.66494296  6.22671273  3.30946311
  13.78617648 -0.09330611  3.56671830
   1.77885438 -0.09330611  3.56671830
  10.22846771  0.09330612  3.56671830
  22.23578981  0.09330612  3.56671830
  12.10062821-10.22846771  3.56671830
  12.10062821  1.77885439  3.56671830
  11.91401598 10.22846772  3.56671830
  11.91401598 -1.77885438  3.56671830
  14.31989575 -1.78867486  2.15944699
   2.31257366 -1.78867486  2.15944699
   9.69474844  1.78867487  2.15944699
  21.70207053  1.78867487  2.15944699
  13.79599696 -9.69474843  2.15944699
  13.79599696  2.31257366  2.15944699
  10.21864723  9.69474844  2.15944699
  10.21864723 -2.31257365  2.15944699
 


--------------------------------------------------------------------------------------------------------


 k-point   1 :   0.0000 0.0000 0.0000  plane waves:   45611
 k-point   2 :   0.0556 0.0000 0.0000  plane waves:   45616
 k-point   3 :   0.1111 0.0000 0.0000  plane waves:   45606
 k-point   4 :   0.1667 0.0000 0.0000  plane waves:   45606
 k-point   5 :   0.2222 0.0000 0.0000  plane waves:   45644
 k-point   6 :   0.2778 0.0000 0.0000  plane waves:   45668
 k-point   7 :   0.3333 0.0000 0.0000  plane waves:   45658
 k-point   8 :   0.3889 0.0000 0.0000  plane waves:   45656
 k-point   9 :   0.4444 0.0000 0.0000  plane waves:   45646
 k-point  10 :   0.5000 0.0000 0.0000  plane waves:   45650
 k-point  11 :   0.5000 0.0000 0.0000  plane waves:   45650
 k-point  12 :   0.5000 0.0556 0.0000  plane waves:   45678
 k-point  13 :   0.5000 0.1111 0.0000  plane waves:   45684
 k-point  14 :   0.5000 0.1667 0.0000  plane waves:   45672
 k-point  15 :   0.5000 0.2222 0.0000  plane waves:   45676
 k-point  16 :   0.5000 0.2778 0.0000  plane waves:   45698
 k-point  17 :   0.5000 0.3333 0.0000  plane waves:   45694
 k-point  18 :   0.5000 0.3889 0.0000  plane waves:   45738
 k-point  19 :   0.5000 0.4444 0.0000  plane waves:   45726
 k-point  20 :   0.5000 0.5000 0.0000  plane waves:   45744
 k-point  21 :   0.5000 0.5000 0.0000  plane waves:   45744
 k-point  22 :   0.4444 0.4444 0.0000  plane waves:   45732
 k-point  23 :   0.3889 0.3889 0.0000  plane waves:   45720
 k-point  24 :   0.3333 0.3333 0.0000  plane waves:   45736
 k-point  25 :   0.2778 0.2778 0.0000  plane waves:   45704
 k-point  26 :   0.2222 0.2222 0.0000  plane waves:   45722
 k-point  27 :   0.1667 0.1667 0.0000  plane waves:   45660
 k-point  28 :   0.1111 0.1111 0.0000  plane waves:   45650
 k-point  29 :   0.0556 0.0556 0.0000  plane waves:   45603
 k-point  30 :   0.0000 0.0000 0.0000  plane waves:   45611
 k-point  31 :   0.0000 0.0000 0.0000  plane waves:   45611
 k-point  32 :  -0.0556 0.0556 0.0000  plane waves:   45603
 k-point  33 :  -0.1111 0.1111 0.0000  plane waves:   45650
 k-point  34 :  -0.1667 0.1667 0.0000  plane waves:   45660
 k-point  35 :  -0.2222 0.2222 0.0000  plane waves:   45722
 k-point  36 :  -0.2778 0.2778 0.0000  plane waves:   45704
 k-point  37 :  -0.3333 0.3333 0.0000  plane waves:   45736
 k-point  38 :  -0.3889 0.3889 0.0000  plane waves:   45720
 k-point  39 :  -0.4444 0.4444 0.0000  plane waves:   45732
 k-point  40 :  -0.5000 0.5000 0.0000  plane waves:   45744
 k-point  41 :  -0.5000 0.5000 0.0000  plane waves:   45744
 k-point  42 :  -0.4444 0.5000 0.0000  plane waves:   45726
 k-point  43 :  -0.3889 0.5000 0.0000  plane waves:   45738
 k-point  44 :  -0.3333 0.5000 0.0000  plane waves:   45694
 k-point  45 :  -0.2778 0.5000 0.0000  plane waves:   45698
 k-point  46 :  -0.2222 0.5000 0.0000  plane waves:   45676
 k-point  47 :  -0.1667 0.5000 0.0000  plane waves:   45672
 k-point  48 :  -0.1111 0.5000 0.0000  plane waves:   45684
 k-point  49 :  -0.0556 0.5000 0.0000  plane waves:   45678
 k-point  50 :  -0.0000 0.5000 0.0000  plane waves:   45650
 k-point  51 :   0.0000 0.5000 0.0000  plane waves:   45650
 k-point  52 :   0.0000 0.4444 0.0000  plane waves:   45646
 k-point  53 :   0.0000 0.3889 0.0000  plane waves:   45656
 k-point  54 :   0.0000 0.3333 0.0000  plane waves:   45658
 k-point  55 :   0.0000 0.2778 0.0000  plane waves:   45668
 k-point  56 :   0.0000 0.2222 0.0000  plane waves:   45644
 k-point  57 :   0.0000 0.1667 0.0000  plane waves:   45606
 k-point  58 :   0.0000 0.1111 0.0000  plane waves:   45606
 k-point  59 :   0.0000 0.0556 0.0000  plane waves:   45616
 k-point  60 :   0.0000 0.0000 0.0000  plane waves:   45611

 maximum and minimum number of plane-waves per node :      2890     2826

 maximum number of plane-waves:     45744
 maximum index in each direction: 
   IXMAX=   31   IYMAX=   30   IZMAX=   11
   IXMIN=  -31   IYMIN=  -31   IZMIN=  -11


 real space projection operators:
  total allocation   :       5410.84 KBytes
  max/ min on nodes  :        370.97        304.16


 parallel 3D FFT for wavefunctions:
    minimum data exchange during FFTs selected (reduces bandwidth)
 parallel 3D FFT for charge:
    minimum data exchange during FFTs selected (reduces bandwidth)


 total amount of memory used by VASP MPI-rank0   360126. kBytes
=======================================================================

   base      :      30000. kBytes
   nonlr-proj:       3170. kBytes
   fftplans  :       3523. kBytes
   grid      :       9289. kBytes
   one-center:        186. kBytes
   wavefun   :     313958. kBytes
 
     INWAV:  cpu time      0.0001: real time      0.0000
 initial charge density was supplied:
 number of electron     352.0000199 magnetization       0.0000000
 keeping initial charge density in first step


--------------------------------------------------------------------------------------------------------


 Maximum index for non-local projection operator          177
 Maximum index for augmentation-charges          413 (set IRDMAX)


--------------------------------------------------------------------------------------------------------


 First call to EWALD:  gamma=   0.146
 Maximum number of real-space cells 2x 2x 5
 Maximum number of reciprocal cells 4x 4x 2

    FEWALD:  cpu time      0.0032: real time      0.0032


--------------------------------------- Iteration      1(   1)  ---------------------------------------


    POTLOK:  cpu time      0.0704: real time      0.0728
    SETDIJ:  cpu time      0.0096: real time      0.0097
     EDDAV:  cpu time     44.5982: real time     45.8515
       DOS:  cpu time      0.0157: real time      0.0166
    --------------------------------------------
      LOOP:  cpu time     44.6939: real time     45.9507

 eigenvalue-minimisations  : 56480
 total energy-change (2. order) : 0.2584283E+04  (-0.1538518E+05)
 number of electron     352.0000199 magnetization       0.0000000
 augmentation part      352.0000199 magnetization       0.0000000

 Free energy of the ion-electron system (eV)
  ---------------------------------------------------
  alpha Z        PSCENC =       314.22554163
  Ewald energy   TEWEN  =      3952.51008323
  -Hartree energ DENC   =    -21296.61926908
  -exchange      EXHF   =         0.00000000
  -V(xc)+E(xc)   XCENC  =      1396.44063456
  PAW double counting   =     33760.82261355   -33934.96737910
  entropy T*S    EENTRO =         0.00150062
  eigenvalues    EBANDS =     -1062.63844343
  atomic energy  EATOM  =     19454.50747293
  Solvation  Ediel_sol  =         0.00000000
  ---------------------------------------------------
  free energy    TOTEN  =      2584.28275491 eV

  energy without entropy =     2584.28125429  energy(sigma->0) =     2584.28225470


--------------------------------------------------------------------------------------------------------




--------------------------------------- Iteration      1(   2)  ---------------------------------------


     EDDAV:  cpu time     52.6150: real time     52.6365
       DOS:  cpu time      0.0165: real time      0.0164
    --------------------------------------------
      LOOP:  cpu time     52.6315: real time     52.6530

 eigenvalue-minimisations  : 73792
 total energy-change (2. order) :-0.2796210E+04  (-0.2653900E+04)
 number of electron     352.0000199 magnetization       0.0000000
 augmentation part      352.0000199 magnetization       0.0000000

 Free energy of the ion-electron system (eV)
  ---------------------------------------------------
  alpha Z        PSCENC =       314.22554163
  Ewald energy   TEWEN  =      3952.51008323
  -Hartree energ DENC   =    -21296.61926908
  -exchange      EXHF   =         0.00000000
[...]
   0.249E+03 0.698E+02 -.137E+03   -.243E+03 -.939E+02 0.154E+03   -.757E+01 0.244E+02 -.170E+02   -.932E-01 0.265E-01 -.362E-01
   0.248E+03 0.698E+02 -.137E+03   -.243E+03 -.939E+02 0.154E+03   -.737E+01 0.246E+02 -.171E+02   -.109E+00 -.913E-03 -.350E-01
   0.698E+02 -.249E+03 -.137E+03   -.939E+02 0.243E+03 0.154E+03   0.244E+02 0.757E+01 -.170E+02   0.265E-01 0.932E-01 -.362E-01
   0.698E+02 -.248E+03 -.137E+03   -.939E+02 0.243E+03 0.154E+03   0.246E+02 0.737E+01 -.171E+02   -.913E-03 0.109E+00 -.350E-01
   -.698E+02 0.249E+03 -.137E+03   0.939E+02 -.243E+03 0.154E+03   -.244E+02 -.757E+01 -.170E+02   -.265E-01 -.932E-01 -.362E-01
   -.698E+02 0.248E+03 -.137E+03   0.939E+02 -.243E+03 0.154E+03   -.246E+02 -.737E+01 -.171E+02   0.913E-03 -.109E+00 -.350E-01
   -.822E+02 0.305E+03 0.281E+03   0.669E+02 -.345E+03 -.316E+03   0.155E+02 0.398E+02 0.341E+02   0.275E-01 -.564E-01 -.425E-01
   -.822E+02 0.305E+03 0.281E+03   0.669E+02 -.345E+03 -.316E+03   0.155E+02 0.398E+02 0.341E+02   0.384E-01 -.510E-01 -.418E-01
   0.822E+02 -.305E+03 0.281E+03   -.669E+02 0.345E+03 -.316E+03   -.155E+02 -.398E+02 0.341E+02   -.275E-01 0.564E-01 -.425E-01
   0.822E+02 -.305E+03 0.281E+03   -.669E+02 0.345E+03 -.316E+03   -.155E+02 -.398E+02 0.341E+02   -.384E-01 0.510E-01 -.418E-01
   -.305E+03 -.822E+02 0.281E+03   0.345E+03 0.669E+02 -.316E+03   -.398E+02 0.155E+02 0.341E+02   0.564E-01 0.275E-01 -.425E-01
   -.305E+03 -.822E+02 0.281E+03   0.345E+03 0.669E+02 -.316E+03   -.398E+02 0.155E+02 0.341E+02   0.510E-01 0.384E-01 -.418E-01
   0.305E+03 0.822E+02 0.281E+03   -.345E+03 -.669E+02 -.316E+03   0.398E+02 -.155E+02 0.341E+02   -.564E-01 -.275E-01 -.425E-01
   0.305E+03 0.822E+02 0.281E+03   -.345E+03 -.669E+02 -.316E+03   0.398E+02 -.155E+02 0.341E+02   -.510E-01 -.384E-01 -.418E-01
 -----------------------------------------------------------------------------------------------
   -.376E-09 0.175E-07 -.153E+03   0.568E-12 0.256E-12 -.909E-12   0.142E-13 -.142E-13 0.154E+03   0.177E-09 0.325E-09 -.136E+01
 
 
 POSITION                                       TOTAL-FORCE (eV/Angst)
 -----------------------------------------------------------------------------------
     -0.00000     -0.00000      3.82363         0.000000      0.000000     -0.815990
     12.00732      0.00000      3.82363         0.000000      0.000000     -0.815990
     17.68963     -3.34918      4.04899        -0.006680      0.012974      0.006059
      5.68231     -3.34918      4.04899        -0.004594      0.013530      0.006142
      6.32502      3.34918      4.04899         0.006680     -0.012974      0.006059
     18.33234      3.34918      4.04899         0.004594     -0.013530      0.006142
     15.35650     -6.32502      4.04899        -0.012974     -0.006680      0.006059
     15.35650      5.68231      4.04899        -0.013530     -0.004594      0.006142
      8.65814      6.32502      4.04899         0.012974      0.006680      0.006059
      8.65814     -5.68231      4.04899         0.013530      0.004594      0.006142
     17.82552     -3.25845      2.28329        -0.002396      0.011485      0.010367
      5.81820     -3.25845      2.28329        -0.003227      0.012163      0.010285
      6.18912      3.25845      2.28329         0.002396     -0.011485      0.010367
     18.19644      3.25845      2.28329         0.003227     -0.012163      0.010285
     15.26578     -6.18912      2.28329        -0.011485     -0.002396      0.010367
     15.26578      5.81820      2.28329        -0.012163     -0.003227      0.010285
      8.74887      6.18912      2.28329         0.011485      0.002396      0.010367
      8.74887     -5.81820      2.28329         0.012163      0.003227      0.010285
     16.21068     -3.36107      3.03717         0.003698      0.021287      0.002688
      4.20336     -3.36107      3.03717         0.003116      0.021499      0.002105
      7.80396      3.36107      3.03717        -0.003698     -0.021287      0.002688
     19.81128      3.36107      3.03717        -0.003116     -0.021499      0.002105
     15.36839     -7.80396      3.03717        -0.021287      0.003698      0.002688
     15.36839      4.20336      3.03717        -0.021499      0.003116      0.002105
      8.64625      7.80396      3.03717         0.021287     -0.003698      0.002688
      8.64625     -4.20336      3.03717         0.021499     -0.003116      0.002105
     14.65462     -0.89027      2.91617        -0.765639      0.574263      0.412885
      2.64730     -0.89027      2.91617        -0.765905      0.595854      0.410657
      9.36002      0.89027      2.91617         0.765639     -0.574263      0.412885
     21.36735      0.89027      2.91617         0.765905     -0.595854      0.410657
     12.89759     -9.36002      2.91617        -0.574263     -0.765639      0.412885
     12.89759      2.64730      2.91617        -0.595854     -0.765905      0.410657
     11.11705      9.36002      2.91617         0.574263      0.765639      0.412885
     11.11705     -2.64730      2.91617         0.595854      0.765905      0.410657
     16.06596     -0.55040      3.18362         0.049479      0.211517     -0.051327
      4.05864     -0.55040      3.18362         0.022421      0.229277     -0.055870
      7.94868      0.55040      3.18362        -0.049479     -0.211517     -0.051327
     19.95600      0.55040      3.18362        -0.022421     -0.229277     -0.055870
     12.55772     -7.94868      3.18362        -0.211517      0.049479     -0.051327
     12.55772      4.05864      3.18362        -0.229277      0.022421     -0.055870
     11.45693      7.94868      3.18362         0.211517     -0.049479     -0.051327
     11.45693     -4.05864      3.18362         0.229277     -0.022421     -0.055870
     17.12979     -1.46234      3.20659         0.145541     -0.056157      0.018554
      5.12246     -1.46234      3.20659         0.151095     -0.069590      0.017871
      6.88486      1.46234      3.20659        -0.145541      0.056157      0.018554
     18.89218      1.46234      3.20659        -0.151095      0.069590      0.017871
     13.46966     -6.88486      3.20659         0.056157      0.145541      0.018554
     13.46966      5.12246      3.20659         0.069590      0.151095      0.017871
     10.54499      6.88486      3.20659        -0.056157     -0.145541      0.018554
     10.54499     -5.12246      3.20659        -0.069590     -0.151095      0.017871
     17.21700     -2.94076      3.14355        -0.036233      0.033690     -0.021987
      5.20968     -2.94076      3.14355        -0.038634      0.035159     -0.018049
      6.79764      2.94076      3.14355         0.036233     -0.033690     -0.021987
     18.80496      2.94076      3.14355         0.038634     -0.035159     -0.018049
     14.94808     -6.79764      3.14355        -0.033690     -0.036233     -0.021987
     14.94808      5.20968      3.14355        -0.035159     -0.038634     -0.018049
      9.06656      6.79764      3.14355         0.033690      0.036233     -0.021987
      9.06656     -5.20968      3.14355         0.035159      0.038634     -0.018049
      4.45951      0.75799      3.26662        -0.075341     -0.238663     -0.015492
     16.46683      0.75799      3.26662        -0.091563     -0.234667     -0.015558
     19.55514     -0.75799      3.26662         0.075341      0.238663     -0.015492
      7.54781     -0.75799      3.26662         0.091563      0.234667     -0.015558
     11.24933      4.45951      3.26662         0.238663     -0.075341     -0.015492
     11.24933     -7.54781      3.26662         0.234667     -0.091563     -0.015558
     12.76532     -4.45951      3.26662        -0.238663      0.075341     -0.015492
     12.76532      7.54781      3.26662        -0.234667      0.091563     -0.015558
      5.78061      0.65762      3.30946         0.126814     -0.182990      0.013225
     17.78793      0.65762      3.30946         0.132190     -0.189907      0.010139
     18.23403     -0.65762      3.30946        -0.126814      0.182990      0.013225
      6.22671     -0.65762      3.30946        -0.132190      0.189907      0.010139
     11.34970      5.78061      3.30946         0.182990      0.126814      0.013225
     11.34970     -6.22671      3.30946         0.189907      0.132190      0.010139
     12.66494     -5.78061      3.30946        -0.182990     -0.126814      0.013225
     12.66494      6.22671      3.30946        -0.189907     -0.132190      0.010139
     13.78618     -0.09331      3.56672         1.846120     -0.371450      0.031961
      1.77885     -0.09331      3.56672         1.885345     -0.538098      0.064688
     10.22847      0.09331      3.56672        -1.846120      0.371450      0.031961
     22.23579      0.09331      3.56672        -1.885345      0.538098      0.064688
     12.10063    -10.22847      3.56672         0.371450      1.846120      0.031961
     12.10063      1.77885      3.56672         0.538098      1.885345      0.064688
     11.91402     10.22847      3.56672        -0.371450     -1.846120      0.031961
     11.91402     -1.77885      3.56672        -0.538098     -1.885345      0.064688
     14.31990     -1.78867      2.15945         0.195691     -0.260551     -0.212389
      2.31257     -1.78867      2.15945         0.190004     -0.280749     -0.218959
      9.69475      1.78867      2.15945        -0.195691      0.260551     -0.212389
     21.70207      1.78867      2.15945        -0.190004      0.280749     -0.218959
     13.79600     -9.69475      2.15945         0.260551      0.195691     -0.212389
     13.79600      2.31257      2.15945         0.280749      0.190004     -0.218959
     10.21865      9.69475      2.15945        -0.260551     -0.195691     -0.212389
     10.21865     -2.31257      2.15945        -0.280749     -0.190004     -0.218959
 -----------------------------------------------------------------------------------
    total drift:                               -0.000000      0.000000     -0.536768


--------------------------------------------------------------------------------------------------------



  FREE ENERGIE OF THE ION-ELECTRON SYSTEM (eV)
  ---------------------------------------------------
  free  energy   TOTEN  =      -622.11985452 eV

  energy  without entropy=     -622.08429562  energy(sigma->0) =     -622.10800155
 


--------------------------------------------------------------------------------------------------------


    POTLOK:  cpu time      0.0710: real time      0.0710


--------------------------------------------------------------------------------------------------------


     LOOP+:  cpu time    460.7027: real time    462.1425
    4ORBIT:  cpu time      0.0000: real time      0.0000



 total charge

# of ion       s       p       d       tot
------------------------------------------
    1        0.375   6.441   4.103  10.919
    2        0.375   6.441   4.103  10.919
    3        0.636   0.043   0.000   0.680
    4        0.636   0.043   0.000   0.680
    5        0.636   0.043   0.000   0.680
    6        0.636   0.043   0.000   0.680
    7        0.636   0.043   0.000   0.680
    8        0.636   0.043   0.000   0.680
    9        0.636   0.043   0.000   0.680
   10        0.636   0.043   0.000   0.680
   11        0.635   0.043   0.000   0.678
   12        0.635   0.043   0.000   0.678
   13        0.635   0.043   0.000   0.678
   14        0.635   0.043   0.000   0.678
   15        0.635   0.043   0.000   0.678
   16        0.635   0.043   0.000   0.678
   17        0.635   0.043   0.000   0.678
   18        0.635   0.043   0.000   0.678
   19        0.633   0.046   0.000   0.679
   20        0.633   0.046   0.000   0.679
   21        0.633   0.046   0.000   0.679
   22        0.633   0.046   0.000   0.679
   23        0.633   0.046   0.000   0.679
   24        0.633   0.046   0.000   0.679
   25        0.633   0.046   0.000   0.679
   26        0.633   0.046   0.000   0.679
   27        0.865   1.710   0.000   2.575
   28        0.865   1.710   0.000   2.575
   29        0.865   1.710   0.000   2.575
   30        0.865   1.710   0.000   2.575
   31        0.865   1.710   0.000   2.575
   32        0.865   1.710   0.000   2.575
   33        0.865   1.710   0.000   2.575
   34        0.865   1.710   0.000   2.575
   35        0.864   1.774   0.000   2.638
   36        0.864   1.774   0.000   2.638
   37        0.864   1.774   0.000   2.638
   38        0.864   1.774   0.000   2.638
   39        0.864   1.774   0.000   2.638
   40        0.864   1.774   0.000   2.638
   41        0.864   1.774   0.000   2.638
   42        0.864   1.774   0.000   2.638
   43        0.852   1.763   0.000   2.615
   44        0.852   1.762   0.000   2.614
   45        0.852   1.763   0.000   2.615
   46        0.852   1.762   0.000   2.614
   47        0.852   1.763   0.000   2.615
   48        0.852   1.762   0.000   2.614
   49        0.852   1.763   0.000   2.615
   50        0.852   1.762   0.000   2.614
   51        0.836   1.812   0.000   2.648
   52        0.836   1.812   0.000   2.648
   53        0.836   1.812   0.000   2.648
   54        0.836   1.812   0.000   2.648
   55        0.836   1.812   0.000   2.648
   56        0.836   1.812   0.000   2.648
   57        0.836   1.812   0.000   2.648
   58        0.836   1.812   0.000   2.648
   59        1.272   2.547   0.000   3.820
   60        1.273   2.547   0.000   3.819
   61        1.272   2.547   0.000   3.820
   62        1.273   2.547   0.000   3.819
   63        1.272   2.547   0.000   3.820
   64        1.273   2.547   0.000   3.819
   65        1.272   2.547   0.000   3.820
   66        1.273   2.547   0.000   3.819
   67        1.227   2.707   0.000   3.934
   68        1.227   2.708   0.000   3.935
   69        1.227   2.707   0.000   3.934
   70        1.227   2.708   0.000   3.935
   71        1.227   2.707   0.000   3.934
   72        1.227   2.708   0.000   3.935
   73        1.227   2.707   0.000   3.934
   74        1.227   2.708   0.000   3.935
   75        1.573   3.559   0.000   5.132
   76        1.573   3.559   0.000   5.132
   77        1.573   3.559   0.000   5.132
   78        1.573   3.559   0.000   5.132
   79        1.573   3.559   0.000   5.132
   80        1.573   3.559   0.000   5.132
   81        1.573   3.559   0.000   5.132
   82        1.573   3.559   0.000   5.132
   83        1.595   3.528   0.000   5.124
   84        1.595   3.528   0.000   5.124
   85        1.595   3.528   0.000   5.124
   86        1.595   3.528   0.000   5.124
   87        1.595   3.528   0.000   5.124
   88        1.595   3.528   0.000   5.124
   89        1.595   3.528   0.000   5.124
   90        1.595   3.528   0.000   5.124
--------------------------------------------------
tot         88.677 169.129   8.207 266.014



 magnetization (x)

# of ion       s       p       d       tot
------------------------------------------
    1        0.093   0.030   2.388   2.512
    2       -0.093  -0.030  -2.388  -2.512
    3       -0.003   0.000   0.000  -0.003
    4       -0.003   0.000   0.000  -0.003
    5       -0.003   0.000   0.000  -0.003
    6       -0.003   0.000   0.000  -0.003
    7        0.003  -0.000   0.000   0.003
    8        0.003  -0.000   0.000   0.003
    9        0.003  -0.000   0.000   0.003
   10        0.003  -0.000   0.000   0.003
   11       -0.003   0.000   0.000  -0.003
   12       -0.003   0.000   0.000  -0.003
   13       -0.003   0.000   0.000  -0.003
   14       -0.003   0.000   0.000  -0.003
   15        0.003  -0.000   0.000   0.003
   16        0.003  -0.000   0.000   0.003
   17        0.003  -0.000   0.000   0.003
   18        0.003  -0.000   0.000   0.003
   19       -0.000   0.000   0.000   0.000
   20       -0.000   0.000   0.000  -0.000
   21       -0.000   0.000   0.000   0.000
   22       -0.000   0.000   0.000  -0.000
   23        0.000  -0.000   0.000  -0.000
   24        0.000  -0.000   0.000   0.000
   25        0.000  -0.000   0.000  -0.000
   26        0.000  -0.000   0.000   0.000
   27       -0.001  -0.007   0.000  -0.008
   28        0.001   0.007   0.000   0.008
   29       -0.001  -0.007   0.000  -0.008
   30        0.001   0.007   0.000   0.008
   31        0.001   0.007   0.000   0.008
   32       -0.001  -0.007   0.000  -0.008
   33        0.001   0.007   0.000   0.008
   34       -0.001  -0.007   0.000  -0.008
   35        0.001   0.005   0.000   0.006
   36       -0.000  -0.001   0.000  -0.002
   37        0.001   0.005   0.000   0.006
   38       -0.000  -0.001   0.000  -0.002
   39       -0.001  -0.005   0.000  -0.006
   40        0.000   0.001   0.000   0.002
   41       -0.001  -0.005   0.000  -0.006
   42        0.000   0.001   0.000   0.002
   43       -0.002  -0.039   0.000  -0.041
   44       -0.002  -0.041   0.000  -0.043
   45       -0.002  -0.039   0.000  -0.041
   46       -0.002  -0.041   0.000  -0.043
   47        0.002   0.039   0.000   0.041
   48        0.002   0.041   0.000   0.043
   49        0.002   0.039   0.000   0.041
   50        0.002   0.041   0.000   0.043
   51        0.000   0.001   0.000   0.001
   52        0.000   0.001   0.000   0.001
   53        0.000   0.001   0.000   0.001
   54        0.000   0.001   0.000   0.001
   55       -0.000  -0.001   0.000  -0.001
   56       -0.000  -0.001   0.000  -0.001
   57       -0.000  -0.001   0.000  -0.001
   58       -0.000  -0.001   0.000  -0.001
   59       -0.001  -0.032   0.000  -0.033
   60       -0.001  -0.038   0.000  -0.039
   61       -0.001  -0.032   0.000  -0.033
   62       -0.001  -0.038   0.000  -0.039
   63        0.001   0.032   0.000   0.033
   64        0.001   0.038   0.000   0.039
   65        0.001   0.032   0.000   0.033
   66        0.001   0.038   0.000   0.039
   67        0.001   0.006   0.000   0.006
   68        0.001   0.006   0.000   0.006
   69        0.001   0.006   0.000   0.006
   70        0.001   0.006   0.000   0.006
   71       -0.001  -0.006   0.000  -0.006
   72       -0.001  -0.006   0.000  -0.006
   73       -0.001  -0.006   0.000  -0.006
   74       -0.001  -0.006   0.000  -0.006
   75        0.002   0.048   0.000   0.050
   76       -0.002  -0.043   0.000  -0.045
   77        0.002   0.048   0.000   0.050
   78       -0.002  -0.043   0.000  -0.045
   79       -0.002  -0.048   0.000  -0.050
   80        0.002   0.043   0.000   0.045
   81       -0.002  -0.048   0.000  -0.050
   82        0.002   0.043   0.000   0.045
   83        0.000   0.021   0.000   0.022
   84       -0.000  -0.028   0.000  -0.028
   85        0.000   0.021   0.000   0.022
   86       -0.000  -0.028   0.000  -0.028
   87       -0.000  -0.021   0.000  -0.022
   88        0.000   0.028   0.000   0.028
   89       -0.000  -0.021   0.000  -0.022
   90        0.000   0.028   0.000   0.028
--------------------------------------------------
tot          0.000   0.000   0.000   0.000
 

 total amount of memory used by VASP MPI-rank0   360126. kBytes
=======================================================================

   base      :      30000. kBytes
   nonlr-proj:       3170. kBytes
   fftplans  :       3523. kBytes
   grid      :       9289. kBytes
   one-center:        186. kBytes
   wavefun   :     313958. kBytes
 
  
  
 General timing and accounting informations for this job:
 ========================================================
  
                  Total CPU time used (sec):      545.431
                            User time (sec):      535.494
                          System time (sec):        9.937
                         Elapsed time (sec):      548.701
  
                   Maximum memory used (kb):      655588.
                   Average memory used (kb):          N/A
  
                          Minor page faults:        76955
                          Major page faults:            3
                 Voluntary context switches:        31272
