 vasp.6.3.2 27Jun22 (build Aug 02 2025 14:55:03) complex                        
  
 executed on             LinuxIFC date 2025.11.28  15:23:13
 running on   48 total cores
 distrk:  each k-point on   48 cores,    1 groups
 distr:  one band on NCORE=  12 cores,    4 groups


--------------------------------------------------------------------------------------------------------


 INCAR:
   PREC = Normal
   ENCUT = 500
   IBRION = -1
   ISPIN = 2
   MAGMOM = 5 -5 4*1 4*-1 4*1 4*-1 4*1 4*-1 4*1 4*-1 4*1 4*-1 4*1 4*-1 4*1 4*-1 4*1 4*-1 4*1 4*-1 4*1 4*-1 4*1 4*-1 4*1 4*-1 4*1 4*-1 4*1 4*-1 4*1 4*-1 4*1 4*-1 4*1 4*-1 4*1 4*-1 4*1 4*-1 4*1 4*-1 4*1 4*-1 4*1 4*-1 4*1 4*-1 4*1 4*-1 4*1 4*-1 4*1 4*-1 4*1 4*-1 4*1 4*-1 4*1 4*-1 4*1 4*-1 4*1 4*-1 4*1 4*-1 4*1 4*-1 4*1 4*-1 4*1 4*-1 4*1 4*-1 4*1 4*-1 4*1 4*-1 4*1 4*-1
   NSW = 0
   NELM = 200
   ISIF = 2
   EDIFF = 1E-5
   EDIFFG = -0.01
   ALGO = Fast
   ISTART = 1
   ICHARG = 11
   LREAL = Auto
   LWAVE = .F.
   LCHARG = .F.
   LVTOT = .T.
   NPAR = 4
   AMIX = 0.2
   BMIX = 0.0001
   AMIX_MAG = 0.8
   BMIX_MAG = 0.0001
   LDAU = .TRUE.
   LDAUTYPE = 2
   LDAUL = 2 -1 -1 -1 -1 -1
   LDAUU = 3.0 0 0 0 0 0
   LDAUJ = 1.0 0 0 0 0 0
   LMAXMIX = 4
   LORBIT = 11

 POTCAR:    PAW_PBE Cr_pv 02Aug2007               
 POTCAR:    PAW_PBE H 15Jun2001                   
 POTCAR:    PAW_PBE C 08Apr2002                   
 POTCAR:    PAW_PBE N 08Apr2002                   
 POTCAR:    PAW_PBE O 08Apr2002                   
 WARNING: For LVTOT=.TRUE., VASP.5.x writes the TOTAL local potential to the
     file LOCPOT. If you want only the Hartree contributions, use LVHAR=.TRUE.
     instead. 

 POTCAR:    PAW_PBE Cr_pv 02Aug2007               
   SHA256 =  c9a7df34d3cdbacf1090e328ef39c0b420964e11c23f63548d1ac9dd218cdba0 Cr_pv/POTCAR          
   COPYR  = (c) Copyright 02Aug2007 Georg Kresse                                                    
   COPYR  = This file is part of the software VASP. Any use, copying, and all other rights are regul
   COPYR  = If you do not have a valid VASP license, you may not use, copy or distribute this file. 
   VRHFIN =Cr : p6d5s1                                                                              
   LEXCH  = PE                                                                                      
   EATOM  =  1647.9177 eV,  121.1185 Ry                                                             
                                                                                                    
   TITEL  = PAW_PBE Cr_pv 02Aug2007                                                                 
   LULTRA =        F    use ultrasoft PP ?                                                          
   IUNSCR =        1    unscreen: 0-lin 1-nonlin 2-no                                               
   RPACOR =    2.080    partial core radius                                                         
   POMASS =   51.996; ZVAL   =   12.000    mass and valenz                                          
   RCORE  =    2.300    outmost cutoff radius                                                       
   RWIGS  =    2.500; RWIGS  =    1.323    wigner-seitz radius (au A)                               
   ENMAX  =  265.681; ENMIN  =  199.261 eV                                                          
   ICORE  =        3    local potential                                                             
   LCOR   =        T    correct aug charges                                                         
   LPAW   =        T    paw PP                                                                      
   EAUG   =  519.424                                                                                
   DEXC   =    0.000                                                                                
   RMAX   =    2.356    core radius for proj-oper                                                   
   RAUG   =    1.300    factor for augmentation sphere                                              
   RDEP   =    2.447    radius for radial grids                                                     
   RDEPT  =    1.882    core radius for aug-charge                                                  
                                                                                                    
   Atomic configuration                                                                             
    8 entries                                                                                       
     n  l   j            E        occ.                                                              
     1  0  0.50     -5880.4963   2.0000                                                             
     2  0  0.50      -667.0865   2.0000                                                             
     2  1  1.50      -560.6250   6.0000                                                             
     3  0  0.50       -73.9860   2.0000                                                             
     3  1  1.50       -45.4378   6.0000                                                             
     3  2  2.50        -2.9137   5.0000                                                             
     4  0  0.50        -4.0071   1.0000                                                             
     4  3  2.50        -1.3606   0.0000                                                             
   Description                                                                                      
     l       E           TYP  RCUT    TYP  RCUT                                                     
     1    -45.4377911     23  2.000                                                                 
     1      1.3605826     23  2.000                                                                 
     2     -2.9136672     23  2.300                                                                 
     2     -4.2742498     23  2.300                                                                 
     0     -4.0071320     23  2.300                                                                 
     0      9.4498803     23  2.300                                                                 
     3      2.7211652     23  2.300                                                                 
  local pseudopotential read in
  partial core-charges read in
  partial kinetic energy density read in
  atomic valenz-charges read in
  non local Contribution for L=           1  read in
    real space projection operators read in
  non local Contribution for L=           1  read in
    real space projection operators read in
  non local Contribution for L=           2  read in
    real space projection operators read in
  non local Contribution for L=           2  read in
    real space projection operators read in
  non local Contribution for L=           0  read in
    real space projection operators read in
  non local Contribution for L=           0  read in
    real space projection operators read in
    PAW grid and wavefunctions read in
 
   number of l-projection  operators is LMAX  =           6
   number of lm-projection operators is LMMAX =          18
 
 POTCAR:    PAW_PBE H 15Jun2001                   
   SHA256 =  030f79b5d3ab3cf0e668861823c8fb652ff669f3e15e46930bd03bfd63a607b6 H/POTCAR              
   COPYR  = (c) Copyright 15Jun2001 Georg Kresse                                                    
   COPYR  = This file is part of the software VASP. Any use, copying, and all other rights are regul
   COPYR  = If you do not have a valid VASP license, you may not use, copy or distribute this file. 
   VRHFIN =H: ultrasoft test                                                                        
   LEXCH  = PE                                                                                      
   EATOM  =    12.4884 eV,    0.9179 Ry                                                             
                                                                                                    
   TITEL  = PAW_PBE H 15Jun2001                                                                     
   LULTRA =        F    use ultrasoft PP ?                                                          
   IUNSCR =        0    unscreen: 0-lin 1-nonlin 2-no                                               
   RPACOR =    0.000    partial core radius                                                         
   POMASS =    1.000; ZVAL   =    1.000    mass and valenz                                          
   RCORE  =    1.100    outmost cutoff radius                                                       
   RWIGS  =    0.700; RWIGS  =    0.370    wigner-seitz radius (au A)                               
   ENMAX  =  250.000; ENMIN  =  200.000 eV                                                          
   RCLOC  =    0.701    cutoff for local pot                                                        
   LCOR   =        T    correct aug charges                                                         
   LPAW   =        T    paw PP                                                                      
   EAUG   =  400.000                                                                                
   RMAX   =    1.123    core radius for proj-oper                                                   
   RAUG   =    1.200    factor for augmentation sphere                                              
   RDEP   =    1.112    radius for radial grids                                                     
   RDEPT  =    0.926    core radius for aug-charge                                                  
                                                                                                    
   Atomic configuration                                                                             
    2 entries                                                                                       
     n  l   j            E        occ.                                                              
     1  0  0.50        -6.4927   1.0000                                                             
     2  1  0.50        -3.4015   0.0000                                                             
   Description                                                                                      
     l       E           TYP  RCUT    TYP  RCUT                                                     
     0     -6.4927494     23  1.100                                                                 
     0      6.8029130     23  1.100                                                                 
     1     -4.0817478     23  1.100                                                                 
  local pseudopotential read in
  atomic valenz-charges read in
  non local Contribution for L=           0  read in
    real space projection operators read in
  non local Contribution for L=           0  read in
    real space projection operators read in
  non local Contribution for L=           1  read in
    real space projection operators read in
    PAW grid and wavefunctions read in
 
   number of l-projection  operators is LMAX  =           3
   number of lm-projection operators is LMMAX =           5
 
 POTCAR:    PAW_PBE C 08Apr2002                   
   SHA256 =  253f7b50bb8d59471dbedb8285d89021f4a42ed1a2c5d38a03a736e69125dd95 C/POTCAR              
   COPYR  = (c) Copyright 08Apr2002 Georg Kresse                                                    
   COPYR  = This file is part of the software VASP. Any use, copying, and all other rights are regul
   COPYR  = If you do not have a valid VASP license, you may not use, copy or distribute this file. 
   VRHFIN =C: s2p2                                                                                  
   LEXCH  = PE                                                                                      
   EATOM  =   147.1560 eV,   10.8157 Ry                                                             
                                                                                                    
   TITEL  = PAW_PBE C 08Apr2002                                                                     
   LULTRA =        F    use ultrasoft PP ?                                                          
   IUNSCR =        1    unscreen: 0-lin 1-nonlin 2-no                                               
   RPACOR =    1.200    partial core radius                                                         
   POMASS =   12.011; ZVAL   =    4.000    mass and valenz                                          
   RCORE  =    1.500    outmost cutoff radius                                                       
   RWIGS  =    1.630; RWIGS  =    0.863    wigner-seitz radius (au A)                               
   ENMAX  =  400.000; ENMIN  =  300.000 eV                                                          
   ICORE  =        2    local potential                                                             
   LCOR   =        T    correct aug charges                                                         
   LPAW   =        T    paw PP                                                                      
   EAUG   =  644.873                                                                                
   DEXC   =    0.000                                                                                
   RMAX   =    1.529    core radius for proj-oper                                                   
   RAUG   =    1.300    factor for augmentation sphere                                              
   RDEP   =    1.501    radius for radial grids                                                     
   RDEPT  =    1.300    core radius for aug-charge                                                  
                                                                                                    
   Atomic configuration                                                                             
    4 entries                                                                                       
     n  l   j            E        occ.                                                              
     1  0  0.50      -273.3789   2.0000                                                             
     2  0  0.50       -13.7508   2.0000                                                             
     2  1  0.50        -5.2854   2.0000                                                             
     3  2  1.50        -5.4423   0.0000                                                             
   Description                                                                                      
     l       E           TYP  RCUT    TYP  RCUT                                                     
     0    -13.7508458     23  1.200                                                                 
     0     -8.2022199     23  1.200                                                                 
     1     -5.2854383     23  1.500                                                                 
     1     34.0145650     23  1.500                                                                 
     2     -5.4423304      7  1.500                                                                 
  local pseudopotential read in
  partial core-charges read in
  partial kinetic energy density read in
  atomic valenz-charges read in
  non local Contribution for L=           0  read in
    real space projection operators read in
  non local Contribution for L=           0  read in
    real space projection operators read in
  non local Contribution for L=           1  read in
    real space projection operators read in
  non local Contribution for L=           1  read in
    real space projection operators read in
    PAW grid and wavefunctions read in
 
   number of l-projection  operators is LMAX  =           4
   number of lm-projection operators is LMMAX =           8
 
 POTCAR:    PAW_PBE N 08Apr2002                   
   SHA256 =  e053789ff3a61a86a1b75d8a110fcc91f86041011e7b0817c7c99e4e8a6349d7 N/POTCAR              
   COPYR  = (c) Copyright 08Apr2002 Georg Kresse                                                    
   COPYR  = This file is part of the software VASP. Any use, copying, and all other rights are regul
   COPYR  = If you do not have a valid VASP license, you may not use, copy or distribute this file. 
   VRHFIN =N: s2p3                                                                                  
   LEXCH  = PE                                                                                      
   EATOM  =   264.5486 eV,   19.4438 Ry                                                             
                                                                                                    
   TITEL  = PAW_PBE N 08Apr2002                                                                     
   LULTRA =        F    use ultrasoft PP ?                                                          
   IUNSCR =        1    unscreen: 0-lin 1-nonlin 2-no                                               
   RPACOR =    1.200    partial core radius                                                         
   POMASS =   14.001; ZVAL   =    5.000    mass and valenz                                          
   RCORE  =    1.500    outmost cutoff radius                                                       
   RWIGS  =    1.400; RWIGS  =    0.741    wigner-seitz radius (au A)                               
   ENMAX  =  400.000; ENMIN  =  300.000 eV                                                          
   ICORE  =        2    local potential                                                             
   LCOR   =        T    correct aug charges                                                         
   LPAW   =        T    paw PP                                                                      
   EAUG   =  627.112                                                                                
   DEXC   =    0.000                                                                                
   RMAX   =    1.529    core radius for proj-oper                                                   
   RAUG   =    1.300    factor for augmentation sphere                                              
   RDEP   =    1.514    radius for radial grids                                                     
   RDEPT  =    1.338    core radius for aug-charge                                                  
                                                                                                    
   Atomic configuration                                                                             
    4 entries                                                                                       
     n  l   j            E        occ.                                                              
     1  0  0.50      -384.7179   2.0000                                                             
     2  0  0.50       -18.5828   2.0000                                                             
     2  1  0.50        -7.0898   3.0000                                                             
     3  2  1.50        -6.8029   0.0000                                                             
   Description                                                                                      
     l       E           TYP  RCUT    TYP  RCUT                                                     
     0    -18.5828119     23  1.200                                                                 
     0    -13.5018863     23  1.200                                                                 
     1     -7.0897853     23  1.500                                                                 
     1      9.5240782     23  1.500                                                                 
     2     -6.8029130      7  1.500                                                                 
  local pseudopotential read in
  partial core-charges read in
  partial kinetic energy density read in
  atomic valenz-charges read in
  non local Contribution for L=           0  read in
    real space projection operators read in
  non local Contribution for L=           0  read in
    real space projection operators read in
  non local Contribution for L=           1  read in
    real space projection operators read in
  non local Contribution for L=           1  read in
    real space projection operators read in
    PAW grid and wavefunctions read in
 
   number of l-projection  operators is LMAX  =           4
   number of lm-projection operators is LMMAX =           8
 
 POTCAR:    PAW_PBE O 08Apr2002                   
   SHA256 =  818f92134a0a090dccd8ba1447fa70422a3b330e708bb4f08108d8ae51209ddf O/POTCAR              
   COPYR  = (c) Copyright 08Apr2002 Georg Kresse                                                    
   COPYR  = This file is part of the software VASP. Any use, copying, and all other rights are regul
   COPYR  = If you do not have a valid VASP license, you may not use, copy or distribute this file. 
   VRHFIN =O: s2p4                                                                                  
   LEXCH  = PE                                                                                      
   EATOM  =   432.3788 eV,   31.7789 Ry                                                             
                                                                                                    
   TITEL  = PAW_PBE O 08Apr2002                                                                     
   LULTRA =        F    use ultrasoft PP ?                                                          
   IUNSCR =        1    unscreen: 0-lin 1-nonlin 2-no                                               
   RPACOR =    1.200    partial core radius                                                         
   POMASS =   16.000; ZVAL   =    6.000    mass and valenz                                          
   RCORE  =    1.520    outmost cutoff radius                                                       
   RWIGS  =    1.550; RWIGS  =    0.820    wigner-seitz radius (au A)                               
   ENMAX  =  400.000; ENMIN  =  300.000 eV                                                          
   ICORE  =        2    local potential                                                             
   LCOR   =        T    correct aug charges                                                         
   LPAW   =        T    paw PP                                                                      
   EAUG   =  605.392                                                                                
   DEXC   =    0.000                                                                                
   RMAX   =    1.553    core radius for proj-oper                                                   
   RAUG   =    1.300    factor for augmentation sphere                                              
   RDEP   =    1.550    radius for radial grids                                                     
   RDEPT  =    1.329    core radius for aug-charge                                                  
                                                                                                    
   Atomic configuration                                                                             
    4 entries                                                                                       
     n  l   j            E        occ.                                                              
     1  0  0.50      -514.6923   2.0000                                                             
     2  0  0.50       -23.9615   2.0000                                                             
     2  1  0.50        -9.0305   4.0000                                                             
     3  2  1.50        -9.5241   0.0000                                                             
   Description                                                                                      
     l       E           TYP  RCUT    TYP  RCUT                                                     
     0    -23.9615318     23  1.200                                                                 
     0     -9.5240782     23  1.200                                                                 
     1     -9.0304911     23  1.520                                                                 
     1      8.1634956     23  1.520                                                                 
     2     -9.5240782      7  1.500                                                                 
  local pseudopotential read in
  partial core-charges read in
  partial kinetic energy density read in
  kinetic energy density of atom read in
  atomic valenz-charges read in
  non local Contribution for L=           0  read in
    real space projection operators read in
  non local Contribution for L=           0  read in
    real space projection operators read in
  non local Contribution for L=           1  read in
    real space projection operators read in
  non local Contribution for L=           1  read in
    real space projection operators read in
    PAW grid and wavefunctions read in
 
   number of l-projection  operators is LMAX  =           4
   number of lm-projection operators is LMMAX =           8
 
 Optimization of the real space projectors (new method)

 maximal supplied QI-value         = 16.25
 optimisation between [QCUT,QGAM] = [ 11.38, 22.75] = [ 36.24,144.96] Ry 
 Optimized for a Real-space Cutoff    1.31 Angstroem

   l    n(q)    QCUT    max X(q) W(low)/X(q) W(high)/X(q)  e(spline) 
   1      8    11.376     3.262    0.15E-03    0.36E-03    0.86E-07
   1      8    11.376     5.741    0.39E-03    0.84E-03    0.21E-06
   2      8    11.376    60.438    0.39E-03    0.55E-03    0.20E-06
   2      8    11.376    55.380    0.40E-03    0.57E-03    0.20E-06
   0      9    11.376    80.273    0.17E-03    0.16E-03    0.48E-07
   0      9    11.376    36.654    0.15E-03    0.14E-03    0.43E-07
 Optimization of the real space projectors (new method)

 maximal supplied QI-value         = 34.20
 optimisation between [QCUT,QGAM] = [ 11.29, 22.57] = [ 35.68,142.71] Ry 
 Optimized for a Real-space Cutoff    1.16 Angstroem

   l    n(q)    QCUT    max X(q) W(low)/X(q) W(high)/X(q)  e(spline) 
   0      8    11.287    19.460    0.40E-03    0.73E-03    0.16E-06
   0      8    11.287    12.209    0.38E-03    0.70E-03    0.15E-06
   1      7    11.287     4.655    0.22E-03    0.25E-04    0.22E-06
 Optimization of the real space projectors (new method)

 maximal supplied QI-value         = 25.13
 optimisation between [QCUT,QGAM] = [ 11.31, 22.87] = [ 35.82,146.48] Ry 
 Optimized for a Real-space Cutoff    1.00 Angstroem

   l    n(q)    QCUT    max X(q) W(low)/X(q) W(high)/X(q)  e(spline) 
   0      7    11.310   115.676    0.43E-03    0.13E-02    0.19E-06
   0      7    11.310    87.132    0.43E-03    0.13E-02    0.18E-06
   1      6    11.310     4.429    0.42E-03    0.74E-03    0.11E-06
   1      6    11.310     2.733    0.34E-03    0.55E-03    0.92E-07
 Optimization of the real space projectors (new method)

 maximal supplied QI-value         = 25.13
 optimisation between [QCUT,QGAM] = [ 11.31, 22.87] = [ 35.82,146.48] Ry 
 Optimized for a Real-space Cutoff    1.27 Angstroem

   l    n(q)    QCUT    max X(q) W(low)/X(q) W(high)/X(q)  e(spline) 
   0      9    11.310    79.467    0.75E-04    0.16E-03    0.36E-06
   0      9    11.310    66.151    0.74E-04    0.16E-03    0.36E-06
   1      8    11.310    17.416    0.35E-03    0.12E-03    0.95E-06
   1      8    11.310    12.382    0.37E-03    0.13E-03    0.98E-06
 Optimization of the real space projectors (new method)

 maximal supplied QI-value         = 24.76
 optimisation between [QCUT,QGAM] = [ 11.39, 22.77] = [ 36.31,145.25] Ry 
 Optimized for a Real-space Cutoff    1.00 Angstroem

   l    n(q)    QCUT    max X(q) W(low)/X(q) W(high)/X(q)  e(spline) 
   0      7    11.387    20.381    0.39E-03    0.13E-02    0.15E-06
   0      7    11.387    15.268    0.42E-03    0.14E-02    0.17E-06
   1      6    11.387     5.964    0.41E-03    0.11E-02    0.17E-06
   1      6    11.387     5.382    0.39E-03    0.87E-03    0.15E-06
  PAW_PBE Cr_pv 02Aug2007               :
 energy of atom  1       EATOM=-1647.9177
 kinetic energy error for atom=    0.0061 (will be added to EATOM!!)
  PAW_PBE H 15Jun2001                   :
 energy of atom  2       EATOM=  -12.4884
 kinetic energy error for atom=    0.0020 (will be added to EATOM!!)
  PAW_PBE C 08Apr2002                   :
 energy of atom  3       EATOM= -147.1560
 kinetic energy error for atom=    0.0076 (will be added to EATOM!!)
  PAW_PBE N 08Apr2002                   :
 energy of atom  4       EATOM= -264.5486
 kinetic energy error for atom=    0.0138 (will be added to EATOM!!)
  PAW_PBE O 08Apr2002                   :
 energy of atom  5       EATOM= -432.3788
 kinetic energy error for atom=    0.0224 (will be added to EATOM!!)
 
 
 POSCAR: Generated by VASPKIT code
  positions in cartesian coordinates
  No initial velocities read in
 exchange correlation table for  LEXCH =        8
   RHO(1)=    0.500       N(1)  =     2000
   RHO(2)=  100.500       N(2)  =     4000
 


--------------------------------------------------------------------------------------------------------


 ion  position               nearest neighbor table
   1  0.000  0.000  0.630- 155 1.80 162 1.80 160 1.80 157 1.80
   2  0.500  0.500  0.630- 156 1.80 158 1.80 159 1.80 161 1.80
   3  0.098  0.030  0.471-  83 1.09
   4  0.598  0.530  0.471-  84 1.09
   5  0.902  0.970  0.471-  85 1.09
   6  0.402  0.470  0.471-  86 1.09
   7  0.470  0.598  0.471-  87 1.09
   8  0.970  0.098  0.471-  88 1.09
   9  0.530  0.402  0.471-  89 1.09
  10  0.030  0.902  0.471-  90 1.09
  11  0.190  0.011  0.368-  91 1.09
  12  0.690  0.511  0.368-  92 1.09
  13  0.810  0.989  0.368-  93 1.09
  14  0.310  0.489  0.368-  94 1.09
  15  0.489  0.690  0.368-  95 1.09
  16  0.989  0.190  0.368-  96 1.09
  17  0.511  0.310  0.368-  97 1.09
  18  0.011  0.810  0.368-  98 1.09
  19  0.268  0.921  0.396-  99 1.09
  20  0.768  0.421  0.396- 100 1.09
  21  0.732  0.079  0.396- 101 1.09
  22  0.232  0.579  0.396- 102 1.09
  23  0.579  0.768  0.396- 103 1.09
  24  0.079  0.268  0.396- 104 1.09
  25  0.421  0.232  0.396- 105 1.09
  26  0.921  0.732  0.396- 106 1.09
  27  0.161  0.869  0.632- 115 1.08
  28  0.661  0.369  0.632- 116 1.08
  29  0.839  0.131  0.632- 117 1.08
  30  0.339  0.631  0.632- 118 1.08
  31  0.631  0.661  0.632- 119 1.08
  32  0.131  0.161  0.632- 120 1.08
  33  0.369  0.339  0.632- 121 1.08
  34  0.869  0.839  0.632- 122 1.08
  35  0.322  0.863  0.522- 123 1.10
  36  0.822  0.363  0.522- 124 1.10
  37  0.678  0.137  0.522- 125 1.10
  38  0.178  0.637  0.522- 126 1.10
  39  0.637  0.822  0.522- 127 1.10
  40  0.137  0.322  0.522- 128 1.10
  41  0.363  0.178  0.522- 129 1.10
  42  0.863  0.678  0.522- 130 1.10
  43  0.620  0.209  0.530- 139 1.10
  44  0.120  0.709  0.530- 140 1.10
  45  0.380  0.791  0.530- 141 1.10
  46  0.880  0.291  0.530- 142 1.10
  47  0.291  0.120  0.530- 143 1.10
  48  0.791  0.620  0.530- 144 1.10
  49  0.709  0.880  0.530- 145 1.10
  50  0.209  0.380  0.530- 146 1.10
  51  0.642  0.280  0.587- 139 1.14
  52  0.142  0.780  0.587- 140 1.14
  53  0.358  0.720  0.587- 141 1.14
  54  0.858  0.220  0.587- 142 1.14
  55  0.220  0.142  0.587- 143 1.14
  56  0.720  0.642  0.587- 144 1.14
  57  0.780  0.858  0.587- 145 1.14
  58  0.280  0.358  0.587- 146 1.14
  59  0.642  0.267  0.388- 147 1.06
  60  0.142  0.767  0.388- 148 1.06
  61  0.358  0.733  0.388- 149 1.06
  62  0.858  0.233  0.388- 150 1.06
  63  0.233  0.142  0.388- 151 1.06
  64  0.733  0.642  0.388- 152 1.06
  65  0.767  0.858  0.388- 153 1.06
  66  0.267  0.358  0.388- 154 1.06
  67  0.658  0.332  0.448- 147 1.02
  68  0.158  0.832  0.448- 148 1.02
  69  0.342  0.668  0.448- 149 1.02
  70  0.842  0.168  0.448- 150 1.02
  71  0.168  0.158  0.448- 151 1.02
  72  0.668  0.658  0.448- 152 1.02
  73  0.832  0.842  0.448- 153 1.02
  74  0.332  0.342  0.448- 154 1.02
  75  0.123  0.949  0.556- 155 1.34  83 1.39 115 1.42
  76  0.623  0.449  0.556- 156 1.34  84 1.39 116 1.42
  77  0.877  0.051  0.556- 157 1.34  85 1.39 117 1.42
  78  0.377  0.551  0.556- 158 1.34  86 1.39 118 1.42
  79  0.551  0.623  0.556- 159 1.34  87 1.39 119 1.42
  80  0.051  0.123  0.556- 160 1.34  88 1.39 120 1.42
  81  0.449  0.377  0.556- 161 1.34  89 1.39 121 1.42
  82  0.949  0.877  0.556- 162 1.34  90 1.39 122 1.42
  83  0.130  0.989  0.482-   3 1.09  75 1.39  91 1.40
  84  0.630  0.489  0.482-   4 1.09  76 1.39  92 1.40
  85  0.870  0.011  0.482-   5 1.09  77 1.39  93 1.40
  86  0.370  0.511  0.482-   6 1.09  78 1.39  94 1.40
  87  0.511  0.630  0.482-   7 1.09  79 1.39  95 1.40
  88  0.011  0.130  0.482-   8 1.09  80 1.39  96 1.40
  89  0.489  0.370  0.482-   9 1.09  81 1.39  97 1.40
  90  0.989  0.870  0.482-  10 1.09  82 1.39  98 1.40
  91  0.184  0.979  0.425-  11 1.09  99 1.39  83 1.40
  92  0.684  0.479  0.425-  12 1.09 100 1.39  84 1.40
  93  0.816  0.021  0.425-  13 1.09 101 1.39  85 1.40
  94  0.316  0.521  0.425-  14 1.09 102 1.39  86 1.40
  95  0.521  0.684  0.425-  15 1.09 103 1.39  87 1.40
  96  0.021  0.184  0.425-  16 1.09 104 1.39  88 1.40
  97  0.479  0.316  0.425-  17 1.09 105 1.39  89 1.40
  98  0.979  0.816  0.425-  18 1.09 106 1.39  90 1.40
  99  0.230  0.931  0.445-  19 1.09  91 1.39 107 1.40
 100  0.730  0.431  0.445-  20 1.09  92 1.39 108 1.40
 101  0.770  0.069  0.445-  21 1.09  93 1.39 109 1.40
 102  0.270  0.569  0.445-  22 1.09  94 1.39 110 1.40
 103  0.569  0.730  0.445-  23 1.09  95 1.39 111 1.40
 104  0.069  0.230  0.445-  24 1.09  96 1.39 112 1.40
 105  0.431  0.270  0.445-  25 1.09  97 1.39 113 1.40
 106  0.931  0.770  0.445-  26 1.09  98 1.39 114 1.40
 107  0.224  0.891  0.519- 115 1.40  99 1.40 123 1.47
 108  0.724  0.391  0.519- 116 1.40 100 1.40 124 1.47
 109  0.776  0.109  0.519- 117 1.40 101 1.40 125 1.47
 110  0.276  0.609  0.519- 118 1.40 102 1.40 126 1.47
 111  0.609  0.724  0.519- 119 1.40 103 1.40 127 1.47
 112  0.109  0.224  0.519- 120 1.40 104 1.40 128 1.47
 113  0.391  0.276  0.519- 121 1.40 105 1.40 129 1.47
 114  0.891  0.776  0.519- 122 1.40 106 1.40 130 1.47
 115  0.171  0.901  0.576-  27 1.08 107 1.40  75 1.42
 116  0.671  0.401  0.576-  28 1.08 108 1.40  76 1.42
 117  0.829  0.099  0.576-  29 1.08 109 1.40  77 1.42
 118  0.329  0.599  0.576-  30 1.08 110 1.40  78 1.42
 119  0.599  0.671  0.576-  31 1.08 111 1.40  79 1.42
 120  0.099  0.171  0.576-  32 1.08 112 1.40  80 1.42
 121  0.401  0.329  0.576-  33 1.08 113 1.40  81 1.42
 122  0.901  0.829  0.576-  34 1.08 114 1.40  82 1.42
 123  0.274  0.840  0.528-  35 1.10 131 1.36 107 1.47
 124  0.774  0.340  0.528-  36 1.10 132 1.36 108 1.47
 125  0.726  0.160  0.528-  37 1.10 133 1.36 109 1.47
 126  0.226  0.660  0.528-  38 1.10 134 1.36 110 1.47
 127  0.660  0.774  0.528-  39 1.10 135 1.36 111 1.47
 128  0.160  0.274  0.528-  40 1.10 136 1.36 112 1.47
 129  0.340  0.226  0.528-  41 1.10 137 1.36 113 1.47
 130  0.840  0.726  0.528-  42 1.10 138 1.36 114 1.47
 131  0.277  0.774  0.529- 123 1.36 134 1.48 141 1.53
 132  0.777  0.274  0.529- 124 1.36 133 1.48 142 1.53
 133  0.723  0.226  0.529- 125 1.36 132 1.48 139 1.53
 134  0.223  0.726  0.529- 126 1.36 131 1.48 140 1.53
 135  0.726  0.777  0.529- 127 1.36 138 1.48 145 1.53
 136  0.226  0.277  0.529- 128 1.36 137 1.48 146 1.53
 137  0.274  0.223  0.529- 129 1.36 136 1.48 143 1.53
 138  0.774  0.723  0.529- 130 1.36 135 1.48 144 1.53
 139  0.653  0.251  0.525-  43 1.10  51 1.14 147 1.44 133 1.53
 140  0.153  0.751  0.525-  44 1.10  52 1.14 148 1.44 134 1.53
 141  0.347  0.749  0.525-  45 1.10  53 1.14 149 1.44 131 1.53
 142  0.847  0.249  0.525-  46 1.10  54 1.14 150 1.44 132 1.53
 143  0.249  0.153  0.525-  47 1.10  55 1.14 151 1.44 137 1.53
 144  0.749  0.653  0.525-  48 1.10  56 1.14 152 1.44 138 1.53
 145  0.751  0.847  0.525-  49 1.10  57 1.14 153 1.44 135 1.53
 146  0.251  0.347  0.525-  50 1.10  58 1.14 154 1.44 136 1.53
 147  0.633  0.290  0.450-  67 1.02  59 1.06 139 1.44
 148  0.133  0.790  0.450-  68 1.02  60 1.06 140 1.44
 149  0.367  0.710  0.450-  69 1.02  61 1.06 141 1.44
 150  0.867  0.210  0.450-  70 1.02  62 1.06 142 1.44
 151  0.210  0.133  0.450-  71 1.02  63 1.06 143 1.44
 152  0.710  0.633  0.450-  72 1.02  64 1.06 144 1.44
 153  0.790  0.867  0.450-  73 1.02  65 1.06 145 1.44
 154  0.290  0.367  0.450-  74 1.02  66 1.06 146 1.44
 155  0.073  0.954  0.612-  75 1.34   1 1.80
 156  0.573  0.454  0.612-  76 1.34   2 1.80
 157  0.927  0.046  0.612-  77 1.34   1 1.80
 158  0.427  0.546  0.612-  78 1.34   2 1.80
 159  0.546  0.573  0.612-  79 1.34   2 1.80
 160  0.046  0.073  0.612-  80 1.34   1 1.80
 161  0.454  0.427  0.612-  81 1.34   2 1.80
 162  0.954  0.927  0.612-  82 1.34   1 1.80
 
  LATTYP: Found a simple tetragonal cell.
 ALAT       =    20.5567703247
 C/A-ratio  =     0.7296866075
  
  Lattice vectors:
  
 A1 = (  20.5567703247,   0.0000000000,   0.0000000000)
 A2 = (   0.0000000000,  20.5567703247,   0.0000000000)
 A3 = (   0.0000000000,   0.0000000000,  15.0000000000)


Analysis of symmetry for initial positions (statically):
=====================================================================
 Subroutine PRICEL returns following result:
 
  LATTYP: Found a simple tetragonal cell.
 ALAT       =    14.5358316342
 C/A-ratio  =     1.0319327010
  
  Lattice vectors:
  
 A1 = (  10.2783851189, -10.2783851186,   0.0000000000)
 A2 = (  10.2783851189,  10.2783852061,   0.0000000000)
 A3 = (   0.0000000000,   0.0000000000,  15.0000000000)
 
   2 primitive cells build up your supercell.
 

 Routine SETGRP: Setting up the symmetry group for a 
 simple tetragonal supercell.


 Subroutine GETGRP returns: Found  4 space group operations
 (whereof  4 operations were pure point group operations)
 out of a pool of 16 trial point group operations.


The static configuration has the point symmetry     .


Analysis of symmetry for dynamics (positions and initial velocities):
=====================================================================
 Subroutine PRICEL returns following result:
 
  LATTYP: Found a simple tetragonal cell.
 ALAT       =    14.5358316342
 C/A-ratio  =     1.0319327010
  
  Lattice vectors:
  
 A1 = (  10.2783851189, -10.2783851186,   0.0000000000)
 A2 = (  10.2783851189,  10.2783852061,   0.0000000000)
 A3 = (   0.0000000000,   0.0000000000,  15.0000000000)
 
   2 primitive cells build up your supercell.
 

 Routine SETGRP: Setting up the symmetry group for a 
 simple tetragonal supercell.


 Subroutine GETGRP returns: Found  4 space group operations
 (whereof  4 operations were pure point group operations)
 out of a pool of 16 trial point group operations.


The dynamic configuration has the point symmetry     .


Analysis of structural, dynamic, and magnetic symmetry:
=====================================================================
 Subroutine PRICEL returns:
 Original cell was already a primitive cell.
 

 Routine SETGRP: Setting up the symmetry group for a 
 simple tetragonal supercell.


 Subroutine GETGRP returns: Found  4 space group operations
 (whereof  2 operations were pure point group operations)
 out of a pool of 16 trial point group operations.


The overall configuration has the point symmetry C_2 .
 The point group associated with its full space group is C_2 .


 Subroutine INISYM returns: Found  4 space group operations
 (whereof  2 operations are pure point group operations),
 and found     1 'primitive' translations


----------------------------------------------------------------------------------------

                                     Primitive cell                                     

  volume of cell :    6338.7121

  direct lattice vectors                    reciprocal lattice vectors
    20.556770325  0.000000000  0.000000000     0.048645774 -0.000000000 -0.000000000
     0.000000000 20.556770325  0.000000000     0.000000000  0.048645774 -0.000000000
     0.000000000  0.000000000 15.000000000     0.000000000  0.000000000  0.066666667

  length of vectors
    20.556770325 20.556770325 15.000000000     0.048645774  0.048645774  0.066666667

  position of ions in fractional coordinates (direct lattice)
     1.000000000  1.000000000  0.629929591
     0.499999998  0.500000002  0.629929591
     0.097870296  0.029966734  0.470964155
     0.597870294  0.529966736  0.470964155
     0.902129699  0.970033270  0.470964155
     0.402129701  0.470033268  0.470964155
     0.470033264  0.597870299  0.470964155
     0.970033266  0.097870301  0.470964155
     0.529966732  0.402129706  0.470964155
     0.029966730  0.902129704  0.470964155
     0.190046321  0.010894780  0.368337435
     0.690046319  0.510894782  0.368337435
     0.809953675  0.989105224  0.368337435
     0.309953677  0.489105222  0.368337435
     0.489105218  0.690046323  0.368337435
     0.989105220  0.190046325  0.368337435
     0.510894778  0.309953681  0.368337435
     0.010894776  0.809953679  0.368337435
     0.267646292  0.921231482  0.395924904
     0.767646294  0.421231485  0.395924904
     0.732353704  0.078768522  0.395924904
     0.232353702  0.578768520  0.395924904
     0.578768515  0.767646298  0.395924904
     0.078768518  0.267646296  0.395924904
     0.421231480  0.232353706  0.395924904
     0.921231478  0.732353708  0.395924904
     0.160775919  0.868866981  0.631662565
     0.660775921  0.368866983  0.631662565
     0.839224077  0.131133023  0.631662565
     0.339224075  0.631133021  0.631662565
     0.631133017  0.660775925  0.631662565
     0.131133019  0.160775923  0.631662565
     0.368866979  0.339224079  0.631662565
     0.868866977  0.839224081  0.631662565
     0.322102668  0.862676186  0.522027817
     0.822102671  0.362676189  0.522027817
     0.677897327  0.137323818  0.522027817
     0.177897325  0.637323816  0.522027817
     0.637323811  0.822102675  0.522027817
     0.137323814  0.322102673  0.522027817
     0.362676184  0.177897330  0.522027817
     0.862676182  0.677897332  0.522027817
     0.620327882  0.208745503  0.529568441
     0.120327880  0.708745500  0.529568441
     0.379672114  0.791254502  0.529568441
     0.879672116  0.291254504  0.529568441
     0.291254500  0.120327884  0.529568441
     0.791254497  0.620327886  0.529568441
     0.708745496  0.879672120  0.529568441
     0.208745498  0.379672118  0.529568441
     0.642154664  0.280494561  0.586929929
     0.142154662  0.780494559  0.586929929
     0.357845332  0.719505443  0.586929929
     0.857845334  0.219505445  0.586929929
     0.219505441  0.142154666  0.586929929
     0.719505439  0.642154668  0.586929929
     0.780494555  0.857845338  0.586929929
     0.280494557  0.357845336  0.586929929
     0.641810827  0.266655908  0.387667294
     0.141810825  0.766655906  0.387667294
     0.358189169  0.733344096  0.387667294
     0.858189171  0.233344098  0.387667294
     0.233344094  0.141810829  0.387667294
     0.733344092  0.641810831  0.387667294
     0.766655902  0.858189175  0.387667294
     0.266655904  0.358189173  0.387667294
     0.657788982  0.332351015  0.448084939
     0.157788980  0.832351013  0.448084939
     0.342211014  0.667648989  0.448084939
     0.842211016  0.167648991  0.448084939
     0.167648987  0.157788984  0.448084939
     0.667648985  0.657788986  0.448084939
     0.832351009  0.842211020  0.448084939
     0.332351011  0.342211018  0.448084939
     0.123402784  0.948799021  0.555760272
     0.623402787  0.448799023  0.555760272
     0.876597211  0.051200983  0.555760272
     0.376597209  0.551200981  0.555760272
     0.551200977  0.623402791  0.555760272
     0.051200979  0.123402789  0.555760272
     0.448799019  0.376597213  0.555760272
     0.948799017  0.876597216  0.555760272
     0.130470346  0.989217506  0.481918092
     0.630470348  0.489217508  0.481918092
     0.869529650  0.010782498  0.481918092
     0.369529648  0.510782496  0.481918092
     0.510782492  0.630470352  0.481918092
     0.010782494  0.130470350  0.481918092
     0.489217504  0.369529652  0.481918092
     0.989217502  0.869529654  0.481918092
     0.183589148  0.979036530  0.425479122
     0.683589150  0.479036532  0.425479122
     0.816410848  0.020963475  0.425479122
     0.316410846  0.520963472  0.425479122
     0.520963468  0.683589154  0.425479122
     0.020963470  0.183589152  0.425479122
     0.479036528  0.316410850  0.425479122
     0.979036525  0.816410852  0.425479122
     0.229570870  0.931419968  0.444641458
     0.729570872  0.431419970  0.444641458
     0.770429126  0.068580036  0.444641458
     0.270429124  0.568580034  0.444641458
     0.568580030  0.729570876  0.444641458
     0.068580032  0.229570874  0.444641458
     0.431419966  0.270429128  0.444641458
     0.931419964  0.770429131  0.444641458
     0.223602127  0.890830929  0.519337568
     0.723602130  0.390830931  0.519337568
     0.776397868  0.109169075  0.519337568
     0.276397866  0.609169073  0.519337568
     0.609169069  0.723602134  0.519337568
     0.109169071  0.223602132  0.519337568
     0.390830927  0.276397870  0.519337568
     0.890830925  0.776397873  0.519337568
     0.170773030  0.900922506  0.576347998
     0.670773032  0.400922508  0.576347998
     0.829226966  0.099077498  0.576347998
     0.329226963  0.599077496  0.576347998
     0.599077492  0.670773037  0.576347998
     0.099077494  0.170773034  0.576347998
     0.400922504  0.329226968  0.576347998
     0.900922502  0.829226970  0.576347998
     0.273823064  0.840024085  0.527691281
     0.773823066  0.340024087  0.527691281
     0.726176932  0.159975919  0.527691281
     0.226176930  0.659975917  0.527691281
     0.659975913  0.773823070  0.527691281
     0.159975915  0.273823068  0.527691281
     0.340024083  0.226176934  0.527691281
     0.840024081  0.726176936  0.527691281
     0.276894862  0.773772384  0.528768124
     0.776894864  0.273772386  0.528768124
     0.723105134  0.226227620  0.528768124
     0.223105132  0.726227618  0.528768124
     0.726227614  0.776894868  0.528768124
     0.226227616  0.276894866  0.528768124
     0.273772382  0.223105136  0.528768124
     0.773772380  0.723105138  0.528768124
     0.653092969  0.250914430  0.524745951
     0.153092967  0.750914428  0.524745951
     0.346907026  0.749085574  0.524745951
     0.846907028  0.249085577  0.524745951
     0.249085572  0.153092972  0.524745951
     0.749085570  0.653092974  0.524745951
     0.750914423  0.846907033  0.524745951
     0.250914426  0.346907030  0.524745951
     0.632830481  0.289519128  0.449942452
     0.132830479  0.789519126  0.449942452
     0.367169515  0.710480876  0.449942452
     0.867169517  0.210480879  0.449942452
     0.210480874  0.132830483  0.449942452
     0.710480872  0.632830485  0.449942452
     0.789519121  0.867169521  0.449942452
     0.289519124  0.367169519  0.449942452
     0.073325773  0.953560170  0.612089292
     0.573325775  0.453560172  0.612089292
     0.926674223  0.046439834  0.612089292
     0.426674221  0.546439832  0.612089292
     0.546439828  0.573325779  0.612089292
     0.046439830  0.073325777  0.612089292
     0.453560168  0.426674225  0.612089292
     0.953560166  0.926674227  0.612089292

  ion indices of the primitive-cell ions
   primitive index   ion index
                 1           1
                 2           2
                 3           3
                 4           4
                 5           5
                 6           6
                 7           7
                 8           8
                 9           9
                10          10
                11          11
                12          12
                13          13
                14          14
                15          15
                16          16
                17          17
                18          18
                19          19
                20          20
                21          21
                22          22
                23          23
                24          24
                25          25
                26          26
                27          27
                28          28
                29          29
                30          30
                31          31
                32          32
                33          33
                34          34
                35          35
                36          36
                37          37
                38          38
                39          39
                40          40
                41          41
                42          42
                43          43
                44          44
                45          45
                46          46
                47          47
                48          48
                49          49
                50          50
                51          51
                52          52
                53          53
                54          54
                55          55
                56          56
                57          57
                58          58
                59          59
                60          60
                61          61
                62          62
                63          63
                64          64
                65          65
                66          66
                67          67
                68          68
                69          69
                70          70
                71          71
                72          72
                73          73
                74          74
                75          75
                76          76
                77          77
                78          78
                79          79
                80          80
                81          81
                82          82
                83          83
                84          84
                85          85
                86          86
                87          87
                88          88
                89          89
                90          90
                91          91
                92          92
                93          93
                94          94
                95          95
                96          96
                97          97
                98          98
                99          99
               100         100
               101         101
               102         102
               103         103
               104         104
               105         105
               106         106
               107         107
               108         108
               109         109
               110         110
               111         111
               112         112
               113         113
               114         114
               115         115
               116         116
               117         117
               118         118
               119         119
               120         120
               121         121
               122         122
               123         123
               124         124
               125         125
               126         126
               127         127
               128         128
               129         129
               130         130
               131         131
               132         132
               133         133
               134         134
               135         135
               136         136
               137         137
               138         138
               139         139
               140         140
               141         141
               142         142
               143         143
               144         144
               145         145
               146         146
               147         147
               148         148
               149         149
               150         150
               151         151
               152         152
               153         153
               154         154
               155         155
               156         156
               157         157
               158         158
               159         159
               160         160
               161         161
               162         162

----------------------------------------------------------------------------------------

 
 
 KPOINTS: K-Path Generated by VASPKIT.            

Interpolating k-points between supplied coordinates.

 Line segments in fractional coordinates (reciprocal lattice):
    0.500000  0.500000  0.000000  ...  0.500000  0.000000  0.000000
    0.500000  0.000000  0.000000  ...  1.000000  0.000000  0.000000
    1.000000  0.000000  0.000000  ...  0.500000  0.500000  0.000000
    0.500000  0.500000  0.000000  ...  1.000000  1.000000  0.000000
    1.000000  1.000000  0.000000  ...  1.000000  0.500000  0.000000
    1.000000  0.500000  0.000000  ...  0.500000  0.500000  0.000000

 Generated    15 points on each line segment, for a total of     90 k-points:

 Following reciprocal coordinates:
            Coordinates               Weight
  0.500000  0.500000  0.000000      0.011111
  0.500000  0.464286  0.000000      0.011111
  0.500000  0.428571  0.000000      0.011111
  0.500000  0.392857  0.000000      0.011111
  0.500000  0.357143  0.000000      0.011111
  0.500000  0.321429  0.000000      0.011111
  0.500000  0.285714  0.000000      0.011111
  0.500000  0.250000  0.000000      0.011111
  0.500000  0.214286  0.000000      0.011111
  0.500000  0.178571  0.000000      0.011111
  0.500000  0.142857  0.000000      0.011111
  0.500000  0.107143  0.000000      0.011111
  0.500000  0.071429  0.000000      0.011111
  0.500000  0.035714  0.000000      0.011111
  0.500000  0.000000  0.000000      0.011111
  0.500000  0.000000  0.000000      0.011111
  0.535714  0.000000  0.000000      0.011111
  0.571429  0.000000  0.000000      0.011111
  0.607143  0.000000  0.000000      0.011111
  0.642857  0.000000  0.000000      0.011111
  0.678571  0.000000  0.000000      0.011111
  0.714286  0.000000  0.000000      0.011111
  0.750000  0.000000  0.000000      0.011111
  0.785714  0.000000  0.000000      0.011111
  0.821429  0.000000  0.000000      0.011111
  0.857143  0.000000  0.000000      0.011111
  0.892857  0.000000  0.000000      0.011111
  0.928571  0.000000  0.000000      0.011111
  0.964286  0.000000  0.000000      0.011111
  1.000000  0.000000  0.000000      0.011111
  1.000000  0.000000  0.000000      0.011111
  0.964286  0.035714  0.000000      0.011111
  0.928571  0.071429  0.000000      0.011111
  0.892857  0.107143  0.000000      0.011111
  0.857143  0.142857  0.000000      0.011111
  0.821429  0.178571  0.000000      0.011111
  0.785714  0.214286  0.000000      0.011111
  0.750000  0.250000  0.000000      0.011111
  0.714286  0.285714  0.000000      0.011111
  0.678571  0.321429  0.000000      0.011111
  0.642857  0.357143  0.000000      0.011111
  0.607143  0.392857  0.000000      0.011111
  0.571429  0.428571  0.000000      0.011111
  0.535714  0.464286  0.000000      0.011111
  0.500000  0.500000  0.000000      0.011111
  0.500000  0.500000  0.000000      0.011111
  0.535714  0.535714  0.000000      0.011111
  0.571429  0.571429  0.000000      0.011111
  0.607143  0.607143  0.000000      0.011111
  0.642857  0.642857  0.000000      0.011111
  0.678571  0.678571  0.000000      0.011111
  0.714286  0.714286  0.000000      0.011111
  0.750000  0.750000  0.000000      0.011111
  0.785714  0.785714  0.000000      0.011111
  0.821429  0.821429  0.000000      0.011111
  0.857143  0.857143  0.000000      0.011111
  0.892857  0.892857  0.000000      0.011111
  0.928571  0.928571  0.000000      0.011111
  0.964286  0.964286  0.000000      0.011111
  1.000000  1.000000  0.000000      0.011111
  1.000000  1.000000  0.000000      0.011111
  1.000000  0.964286  0.000000      0.011111
  1.000000  0.928571  0.000000      0.011111
  1.000000  0.892857  0.000000      0.011111
  1.000000  0.857143  0.000000      0.011111
  1.000000  0.821429  0.000000      0.011111
  1.000000  0.785714  0.000000      0.011111
  1.000000  0.750000  0.000000      0.011111
  1.000000  0.714286  0.000000      0.011111
  1.000000  0.678571  0.000000      0.011111
  1.000000  0.642857  0.000000      0.011111
  1.000000  0.607143  0.000000      0.011111
  1.000000  0.571429  0.000000      0.011111
  1.000000  0.535714  0.000000      0.011111
  1.000000  0.500000  0.000000      0.011111
  1.000000  0.500000  0.000000      0.011111
  0.964286  0.500000  0.000000      0.011111
  0.928571  0.500000  0.000000      0.011111
  0.892857  0.500000  0.000000      0.011111
  0.857143  0.500000  0.000000      0.011111
  0.821429  0.500000  0.000000      0.011111
  0.785714  0.500000  0.000000      0.011111
  0.750000  0.500000  0.000000      0.011111
  0.714286  0.500000  0.000000      0.011111
  0.678571  0.500000  0.000000      0.011111
  0.642857  0.500000  0.000000      0.011111
  0.607143  0.500000  0.000000      0.011111
  0.571429  0.500000  0.000000      0.011111
  0.535714  0.500000  0.000000      0.011111
  0.500000  0.500000  0.000000      0.011111

 Following cartesian coordinates:
            Coordinates               Weight
  0.024323  0.024323 -0.000000      0.011111
  0.024323  0.022586 -0.000000      0.011111
  0.024323  0.020848 -0.000000      0.011111
  0.024323  0.019111 -0.000000      0.011111
  0.024323  0.017373 -0.000000      0.011111
  0.024323  0.015636 -0.000000      0.011111
  0.024323  0.013899 -0.000000      0.011111
  0.024323  0.012161 -0.000000      0.011111
  0.024323  0.010424 -0.000000      0.011111
  0.024323  0.008687 -0.000000      0.011111
  0.024323  0.006949 -0.000000      0.011111
  0.024323  0.005212 -0.000000      0.011111
  0.024323  0.003475 -0.000000      0.011111
  0.024323  0.001737 -0.000000      0.011111
  0.024323 -0.000000 -0.000000      0.011111
  0.024323 -0.000000 -0.000000      0.011111
  0.026060 -0.000000 -0.000000      0.011111
  0.027798 -0.000000 -0.000000      0.011111
  0.029535 -0.000000 -0.000000      0.011111
  0.031272 -0.000000 -0.000000      0.011111
  0.033010 -0.000000 -0.000000      0.011111
  0.034747 -0.000000 -0.000000      0.011111
  0.036484 -0.000000 -0.000000      0.011111
  0.038222 -0.000000 -0.000000      0.011111
  0.039959 -0.000000 -0.000000      0.011111
  0.041696 -0.000000 -0.000000      0.011111
  0.043434 -0.000000 -0.000000      0.011111
  0.045171 -0.000000 -0.000000      0.011111
  0.046908 -0.000000 -0.000000      0.011111
  0.048646 -0.000000 -0.000000      0.011111
  0.048646 -0.000000 -0.000000      0.011111
  0.046908  0.001737 -0.000000      0.011111
  0.045171  0.003475 -0.000000      0.011111
  0.043434  0.005212 -0.000000      0.011111
  0.041696  0.006949 -0.000000      0.011111
  0.039959  0.008687 -0.000000      0.011111
  0.038222  0.010424 -0.000000      0.011111
  0.036484  0.012161 -0.000000      0.011111
  0.034747  0.013899 -0.000000      0.011111
  0.033010  0.015636 -0.000000      0.011111
  0.031272  0.017373 -0.000000      0.011111
  0.029535  0.019111 -0.000000      0.011111
  0.027798  0.020848 -0.000000      0.011111
  0.026060  0.022586 -0.000000      0.011111
  0.024323  0.024323 -0.000000      0.011111
  0.024323  0.024323 -0.000000      0.011111
  0.026060  0.026060 -0.000000      0.011111
  0.027798  0.027798 -0.000000      0.011111
  0.029535  0.029535 -0.000000      0.011111
  0.031272  0.031272 -0.000000      0.011111
  0.033010  0.033010 -0.000000      0.011111
  0.034747  0.034747 -0.000000      0.011111
  0.036484  0.036484 -0.000000      0.011111
  0.038222  0.038222 -0.000000      0.011111
  0.039959  0.039959 -0.000000      0.011111
  0.041696  0.041696 -0.000000      0.011111
  0.043434  0.043434 -0.000000      0.011111
  0.045171  0.045171 -0.000000      0.011111
  0.046908  0.046908 -0.000000      0.011111
  0.048646  0.048646 -0.000000      0.011111
  0.048646  0.048646 -0.000000      0.011111
  0.048646  0.046908 -0.000000      0.011111
  0.048646  0.045171 -0.000000      0.011111
  0.048646  0.043434 -0.000000      0.011111
  0.048646  0.041696 -0.000000      0.011111
  0.048646  0.039959 -0.000000      0.011111
  0.048646  0.038222 -0.000000      0.011111
  0.048646  0.036484 -0.000000      0.011111
  0.048646  0.034747 -0.000000      0.011111
  0.048646  0.033010 -0.000000      0.011111
  0.048646  0.031272 -0.000000      0.011111
  0.048646  0.029535 -0.000000      0.011111
  0.048646  0.027798 -0.000000      0.011111
  0.048646  0.026060 -0.000000      0.011111
  0.048646  0.024323 -0.000000      0.011111
  0.048646  0.024323 -0.000000      0.011111
  0.046908  0.024323 -0.000000      0.011111
  0.045171  0.024323 -0.000000      0.011111
  0.043434  0.024323 -0.000000      0.011111
  0.041696  0.024323 -0.000000      0.011111
  0.039959  0.024323 -0.000000      0.011111
  0.038222  0.024323 -0.000000      0.011111
  0.036484  0.024323 -0.000000      0.011111
  0.034747  0.024323 -0.000000      0.011111
  0.033010  0.024323 -0.000000      0.011111
  0.031272  0.024323 -0.000000      0.011111
  0.029535  0.024323 -0.000000      0.011111
  0.027798  0.024323 -0.000000      0.011111
  0.026060  0.024323 -0.000000      0.011111
  0.024323  0.024323 -0.000000      0.011111
 


--------------------------------------------------------------------------------------------------------




 Dimension of arrays:
   k-points           NKPTS =     90   k-points in BZ     NKDIM =     90   number of bands    NBANDS=    320
   number of dos      NEDOS =    301   number of ions     NIONS =    162
   non local maximal  LDIM  =      6   non local SUM 2l+1 LMDIM =     18
   total plane-waves  NPLWV = ******
   max r-space proj   IRMAX =   1615   max aug-charges    IRDMAX=   5983
   dimension x,y,z NGX =   112 NGY =  112 NGZ =   84
   dimension x,y,z NGXF=   224 NGYF=  224 NGZF=  168
   support grid    NGXF=   224 NGYF=  224 NGZF=  168
   ions per type =               2  72  72   8   8
   NGX,Y,Z   is equivalent  to a cutoff of   9.06,  9.06,  9.31 a.u.
   NGXF,Y,Z  is equivalent  to a cutoff of  18.12, 18.12, 18.62 a.u.

 SYSTEM =  unknown system                          
 POSCAR =  Generated by VASPKIT code               

 Startparameter for this run:
   NWRITE =      2    write-flag & timer
   PREC   = normal    normal or accurate (medium, high low for compatibility)
   ISTART =      0    job   : 0-new  1-cont  2-samecut
   ICHARG =     11    charge: 1-file 2-atom 10-const
   ISPIN  =      2    spin polarized calculation?
   LNONCOLLINEAR =      F non collinear calculations
   LSORBIT =      F    spin-orbit coupling
   INIWAV =      1    electr: 0-lowe 1-rand  2-diag
   LASPH  =      F    aspherical Exc in radial PAW
 Electronic Relaxation 1
   ENCUT  =  500.0 eV  36.75 Ry    6.06 a.u.  37.48 37.48 27.35*2*pi/ulx,y,z
   ENINI  =  500.0     initial cutoff
   ENAUG  =  644.9 eV  augmentation charge cutoff
   NELM   =    200;   NELMIN=  2; NELMDL=  0     # of ELM steps 
   EDIFF  = 0.1E-04   stopping-criterion for ELM
   LREAL  =      T    real-space projection
   NLSPLINE    = F    spline interpolate recip. space projectors
   LCOMPAT=      F    compatible to vasp.4.4
   GGA_COMPAT  = T    GGA compatible to vasp.4.4-vasp.4.6
   LMAXPAW     = -100 max onsite density
   LMAXMIX     =    4 max onsite mixed and CHGCAR
   VOSKOWN=      0    Vosko Wilk Nusair interpolation
   ROPT   =   -0.00050  -0.00050  -0.00050  -0.00050
   ROPT   =   -0.00050
 Ionic relaxation
   EDIFFG = -.1E-01   stopping-criterion for IOM
   NSW    =      0    number of steps for IOM
   NBLOCK =      1;   KBLOCK =      1    inner block; outer block 
   IBRION =     -1    ionic relax: 0-MD 1-quasi-New 2-CG
   NFREE  =      0    steps in history (QN), initial steepest desc. (CG)
   ISIF   =      2    stress and relaxation
   IWAVPR =     10    prediction:  0-non 1-charg 2-wave 3-comb
   ISYM   =      2    0-nonsym 1-usesym 2-fastsym
   LCORR  =      T    Harris-Foulkes like correction to forces

   POTIM  = 0.5000    time-step for ionic-motion
   TEIN   =    0.0    initial temperature
   TEBEG  =    0.0;   TEEND  =   0.0 temperature during run
   SMASS  =  -3.00    Nose mass-parameter (am)
   estimated Nose-frequenzy (Omega)   =  0.10E-29 period in steps = 0.13E+47 mass=  -0.966E-26a.u.
   SCALEE = 1.0000    scale energy and forces
   NPACO  =    256;   APACO  = 10.0  distance and # of slots for P.C.
   PSTRESS=    0.0 pullay stress

  Mass of Ions in am
   POMASS =  52.00  1.00 12.01 14.00 16.00
  Ionic Valenz
   ZVAL   =  12.00  1.00  4.00  5.00  6.00
  Atomic Wigner-Seitz radii
   RWIGS  =  -1.00 -1.00 -1.00 -1.00 -1.00
  virtual crystal weights 
   VCA    =   1.00  1.00  1.00  1.00  1.00
   NELECT =     472.0000    total number of electrons
   NUPDOWN=      -1.0000    fix difference up-down

 DOS related values:
   EMIN   =  10.00;   EMAX   =-10.00  energy-range for DOS
   EFERMI =   0.00
   ISMEAR =     1;   SIGMA  =   0.20  broadening in eV -4-tet -1-fermi 0-gaus

 Electronic relaxation 2 (details)
   IALGO  =     68    algorithm
   LDIAG  =      T    sub-space diagonalisation (order eigenvalues)
   LSUBROT=      F    optimize rotation matrix (better conditioning)
   TURBO    =      0    0=normal 1=particle mesh
   IRESTART =      0    0=no restart 2=restart with 2 vectors
   NREBOOT  =      0    no. of reboots
   NMIN     =      0    reboot dimension
   EREF     =   0.00    reference energy to select bands
   IMIX   =      4    mixing-type and parameters
     AMIX     =   0.20;   BMIX     =  0.00
     AMIX_MAG =   0.80;   BMIX_MAG =  0.00
     AMIN     =   0.10
     WC   =   100.;   INIMIX=   1;  MIXPRE=   1;  MAXMIX= -45

 Intra band minimization:
   WEIMIN = 0.0000     energy-eigenvalue tresh-hold
   EBREAK =  0.78E-08  absolut break condition
   DEPER  =   0.30     relativ break condition  

   TIME   =   0.40     timestep for ELM

  volume/ion in A,a.u.               =      39.13       264.05
  Fermi-wavevector in a.u.,A,eV,Ry     =   0.688740  1.301529  6.454093  0.474362
  Thomas-Fermi vector in A             =   1.769626
 
 Write flags
   LWAVE        =      F    write WAVECAR
   LDOWNSAMPLE  =      F    k-point downsampling of WAVECAR
   LCHARG       =      F    write CHGCAR
   LVTOT        =      T    write LOCPOT, total local potential
   LVHAR        =      F    write LOCPOT, Hartree potential only
   LELF         =      F    write electronic localiz. function (ELF)
   LORBIT       =     11    0 simple, 1 ext, 2 COOP (PROOUT), +10 PAW based schemes


 Dipole corrections
   LMONO  =      F    monopole corrections only (constant potential shift)
   LDIPOL =      F    correct potential (dipole corrections)
   IDIPOL =      0    1-x, 2-y, 3-z, 4-all directions 
   EPSILON=  1.0000000 bulk dielectric constant

 LDA+U is selected, type is set to LDAUTYPE =  2
   angular momentum for each species LDAUL =     2   -1   -1   -1   -1
   U (eV)           for each species LDAUU =   3.0  0.0  0.0  0.0  0.0
   J (eV)           for each species LDAUJ =   1.0  0.0  0.0  0.0  0.0
 Exchange correlation treatment:
   GGA     =    --    GGA type
   LEXCH   =     8    internal setting for exchange type
   LIBXC   =     F    Libxc                    
   VOSKOWN =     0    Vosko Wilk Nusair interpolation
   LHFCALC =     F    Hartree Fock is set to
   LHFONE  =     F    Hartree Fock one center treatment
   AEXX    =    0.0000 exact exchange contribution

 Linear response parameters
   LEPSILON=     F    determine dielectric tensor
   LRPA    =     F    only Hartree local field effects (RPA)
   LNABLA  =     F    use nabla operator in PAW spheres
   LVEL    =     F    velocity operator in full k-point grid
   CSHIFT  =0.1000    complex shift for real part using Kramers Kronig
   OMEGAMAX=  -1.0    maximum frequency
   DEG_THRESHOLD= 0.2000000E-02 threshold for treating states as degnerate
   RTIME   =   -0.100 relaxation time in fs
  (WPLASMAI=    0.000 imaginary part of plasma frequency in eV, 0.658/RTIME)
   DFIELD  = 0.0000000 0.0000000 0.0000000 field for delta impulse in time
 
  Optional k-point grid parameters
   LKPOINTS_OPT  =     F    use optional k-point grid
   KPOINTS_OPT_MODE=     1    mode for optional k-point grid
 
 Orbital magnetization related:
   ORBITALMAG=     F  switch on orbital magnetization
   LCHIMAG   =     F  perturbation theory with respect to B field
   DQ        =  0.001000  dq finite difference perturbation B field
   LLRAUG    =     F  two centre corrections for induced B field



--------------------------------------------------------------------------------------------------------


 Static calculation
 charge density and potential remain constant during run
 spin polarized calculation
 RMM-DIIS sequential band-by-band and
  variant of blocked Davidson during initial phase
 perform sub-space diagonalisation
    before iterative eigenvector-optimisation
 no mixing
 using additional bands           84
 real space projection scheme for non local part
 use partial core corrections
 calculate Harris-corrections to forces 
   (improved forces if not selfconsistent)
 use gradient corrections 
 WARNING: stress and forces are not correct
  (second derivative of E(xc) not defined)
 use of overlap-Matrix (Vanderbilt PP)
 Methfessel and Paxton  Order N= 1 SIGMA  =   0.20


--------------------------------------------------------------------------------------------------------


  energy-cutoff  :      500.00
  volume of cell :     6338.71
      direct lattice vectors                 reciprocal lattice vectors
    20.556770325  0.000000000  0.000000000     0.048645774 -0.000000000 -0.000000000
     0.000000000 20.556770325  0.000000000     0.000000000  0.048645774 -0.000000000
     0.000000000  0.000000000 15.000000000     0.000000000  0.000000000  0.066666667

  length of vectors
    20.556770325 20.556770325 15.000000000     0.048645774  0.048645774  0.066666667


 
 k-points in units of 2pi/SCALE and weight: K-Path Generated by VASPKIT.            
   0.02432289  0.02432289 -0.00000000       0.011
   0.02432289  0.02258554 -0.00000000       0.011
   0.02432289  0.02084819 -0.00000000       0.011
   0.02432289  0.01911084 -0.00000000       0.011
   0.02432289  0.01737349 -0.00000000       0.011
   0.02432289  0.01563614 -0.00000000       0.011
   0.02432289  0.01389879 -0.00000000       0.011
   0.02432289  0.01216144 -0.00000000       0.011
   0.02432289  0.01042409 -0.00000000       0.011
   0.02432289  0.00868675 -0.00000000       0.011
   0.02432289  0.00694940 -0.00000000       0.011
   0.02432289  0.00521205 -0.00000000       0.011
   0.02432289  0.00347470 -0.00000000       0.011
   0.02432289  0.00173735 -0.00000000       0.011
   0.02432289 -0.00000000 -0.00000000       0.011
   0.02432289 -0.00000000 -0.00000000       0.011
   0.02606024 -0.00000000 -0.00000000       0.011
   0.02779759 -0.00000000 -0.00000000       0.011
   0.02953493 -0.00000000 -0.00000000       0.011
   0.03127228 -0.00000000 -0.00000000       0.011
   0.03300963 -0.00000000 -0.00000000       0.011
   0.03474698 -0.00000000 -0.00000000       0.011
   0.03648433 -0.00000000 -0.00000000       0.011
   0.03822168 -0.00000000 -0.00000000       0.011
   0.03995903 -0.00000000 -0.00000000       0.011
   0.04169638 -0.00000000 -0.00000000       0.011
   0.04343373 -0.00000000 -0.00000000       0.011
   0.04517108 -0.00000000 -0.00000000       0.011
   0.04690842 -0.00000000 -0.00000000       0.011
   0.04864577 -0.00000000 -0.00000000       0.011
   0.04864577 -0.00000000 -0.00000000       0.011
   0.04690842  0.00173735 -0.00000000       0.011
   0.04517108  0.00347470 -0.00000000       0.011
   0.04343373  0.00521205 -0.00000000       0.011
   0.04169638  0.00694940 -0.00000000       0.011
   0.03995903  0.00868675 -0.00000000       0.011
   0.03822168  0.01042409 -0.00000000       0.011
   0.03648433  0.01216144 -0.00000000       0.011
   0.03474698  0.01389879 -0.00000000       0.011
   0.03300963  0.01563614 -0.00000000       0.011
   0.03127228  0.01737349 -0.00000000       0.011
   0.02953493  0.01911084 -0.00000000       0.011
   0.02779759  0.02084819 -0.00000000       0.011
   0.02606024  0.02258554 -0.00000000       0.011
   0.02432289  0.02432289 -0.00000000       0.011
   0.02432289  0.02432289 -0.00000000       0.011
   0.02606024  0.02606024 -0.00000000       0.011
   0.02779759  0.02779759 -0.00000000       0.011
   0.02953493  0.02953493 -0.00000000       0.011
   0.03127228  0.03127228 -0.00000000       0.011
   0.03300963  0.03300963 -0.00000000       0.011
   0.03474698  0.03474698 -0.00000000       0.011
   0.03648433  0.03648433 -0.00000000       0.011
   0.03822168  0.03822168 -0.00000000       0.011
   0.03995903  0.03995903 -0.00000000       0.011
   0.04169638  0.04169638 -0.00000000       0.011
   0.04343373  0.04343373 -0.00000000       0.011
   0.04517108  0.04517108 -0.00000000       0.011
   0.04690842  0.04690842 -0.00000000       0.011
   0.04864577  0.04864577 -0.00000000       0.011
   0.04864577  0.04864577 -0.00000000       0.011
   0.04864577  0.04690842 -0.00000000       0.011
   0.04864577  0.04517108 -0.00000000       0.011
   0.04864577  0.04343373 -0.00000000       0.011
   0.04864577  0.04169638 -0.00000000       0.011
   0.04864577  0.03995903 -0.00000000       0.011
   0.04864577  0.03822168 -0.00000000       0.011
   0.04864577  0.03648433 -0.00000000       0.011
   0.04864577  0.03474698 -0.00000000       0.011
   0.04864577  0.03300963 -0.00000000       0.011
   0.04864577  0.03127228 -0.00000000       0.011
   0.04864577  0.02953493 -0.00000000       0.011
   0.04864577  0.02779759 -0.00000000       0.011
   0.04864577  0.02606024 -0.00000000       0.011
   0.04864577  0.02432289 -0.00000000       0.011
   0.04864577  0.02432289 -0.00000000       0.011
   0.04690842  0.02432289 -0.00000000       0.011
   0.04517108  0.02432289 -0.00000000       0.011
   0.04343373  0.02432289 -0.00000000       0.011
   0.04169638  0.02432289 -0.00000000       0.011
   0.03995903  0.02432289 -0.00000000       0.011
   0.03822168  0.02432289 -0.00000000       0.011
   0.03648433  0.02432289 -0.00000000       0.011
   0.03474698  0.02432289 -0.00000000       0.011
   0.03300963  0.02432289 -0.00000000       0.011
   0.03127228  0.02432289 -0.00000000       0.011
   0.02953493  0.02432289 -0.00000000       0.011
   0.02779759  0.02432289 -0.00000000       0.011
   0.02606024  0.02432289 -0.00000000       0.011
   0.02432289  0.02432289 -0.00000000       0.011
 
 k-points in reciprocal lattice and weights: K-Path Generated by VASPKIT.            
   0.50000000  0.50000000  0.00000000       0.011
   0.50000000  0.46428571  0.00000000       0.011
   0.50000000  0.42857143  0.00000000       0.011
   0.50000000  0.39285714  0.00000000       0.011
   0.50000000  0.35714286  0.00000000       0.011
   0.50000000  0.32142857  0.00000000       0.011
   0.50000000  0.28571429  0.00000000       0.011
   0.50000000  0.25000000  0.00000000       0.011
   0.50000000  0.21428571  0.00000000       0.011
   0.50000000  0.17857143  0.00000000       0.011
   0.50000000  0.14285714  0.00000000       0.011
   0.50000000  0.10714286  0.00000000       0.011
   0.50000000  0.07142857  0.00000000       0.011
   0.50000000  0.03571429  0.00000000       0.011
   0.50000000  0.00000000  0.00000000       0.011
   0.50000000  0.00000000  0.00000000       0.011
   0.53571429  0.00000000  0.00000000       0.011
   0.57142857  0.00000000  0.00000000       0.011
   0.60714286  0.00000000  0.00000000       0.011
   0.64285714  0.00000000  0.00000000       0.011
   0.67857143  0.00000000  0.00000000       0.011
   0.71428571  0.00000000  0.00000000       0.011
   0.75000000  0.00000000  0.00000000       0.011
   0.78571429  0.00000000  0.00000000       0.011
   0.82142857  0.00000000  0.00000000       0.011
   0.85714286  0.00000000  0.00000000       0.011
   0.89285714  0.00000000  0.00000000       0.011
   0.92857143  0.00000000  0.00000000       0.011
   0.96428571  0.00000000  0.00000000       0.011
   1.00000000  0.00000000  0.00000000       0.011
   1.00000000  0.00000000  0.00000000       0.011
   0.96428571  0.03571429  0.00000000       0.011
   0.92857143  0.07142857  0.00000000       0.011
   0.89285714  0.10714286  0.00000000       0.011
   0.85714286  0.14285714  0.00000000       0.011
   0.82142857  0.17857143  0.00000000       0.011
   0.78571429  0.21428571  0.00000000       0.011
   0.75000000  0.25000000  0.00000000       0.011
   0.71428571  0.28571429  0.00000000       0.011
   0.67857143  0.32142857  0.00000000       0.011
   0.64285714  0.35714286  0.00000000       0.011
   0.60714286  0.39285714  0.00000000       0.011
   0.57142857  0.42857143  0.00000000       0.011
   0.53571429  0.46428571  0.00000000       0.011
   0.50000000  0.50000000  0.00000000       0.011
   0.50000000  0.50000000  0.00000000       0.011
   0.53571429  0.53571429  0.00000000       0.011
   0.57142857  0.57142857  0.00000000       0.011
   0.60714286  0.60714286  0.00000000       0.011
   0.64285714  0.64285714  0.00000000       0.011
   0.67857143  0.67857143  0.00000000       0.011
   0.71428571  0.71428571  0.00000000       0.011
   0.75000000  0.75000000  0.00000000       0.011
   0.78571429  0.78571429  0.00000000       0.011
   0.82142857  0.82142857  0.00000000       0.011
   0.85714286  0.85714286  0.00000000       0.011
   0.89285714  0.89285714  0.00000000       0.011
   0.92857143  0.92857143  0.00000000       0.011
   0.96428571  0.96428571  0.00000000       0.011
   1.00000000  1.00000000  0.00000000       0.011
   1.00000000  1.00000000  0.00000000       0.011
   1.00000000  0.96428571  0.00000000       0.011
   1.00000000  0.92857143  0.00000000       0.011
   1.00000000  0.89285714  0.00000000       0.011
   1.00000000  0.85714286  0.00000000       0.011
   1.00000000  0.82142857  0.00000000       0.011
   1.00000000  0.78571429  0.00000000       0.011
   1.00000000  0.75000000  0.00000000       0.011
   1.00000000  0.71428571  0.00000000       0.011
   1.00000000  0.67857143  0.00000000       0.011
   1.00000000  0.64285714  0.00000000       0.011
   1.00000000  0.60714286  0.00000000       0.011
   1.00000000  0.57142857  0.00000000       0.011
   1.00000000  0.53571429  0.00000000       0.011
   1.00000000  0.50000000  0.00000000       0.011
   1.00000000  0.50000000  0.00000000       0.011
   0.96428571  0.50000000  0.00000000       0.011
   0.92857143  0.50000000  0.00000000       0.011
   0.89285714  0.50000000  0.00000000       0.011
   0.85714286  0.50000000  0.00000000       0.011
   0.82142857  0.50000000  0.00000000       0.011
   0.78571429  0.50000000  0.00000000       0.011
   0.75000000  0.50000000  0.00000000       0.011
   0.71428571  0.50000000  0.00000000       0.011
   0.67857143  0.50000000  0.00000000       0.011
   0.64285714  0.50000000  0.00000000       0.011
   0.60714286  0.50000000  0.00000000       0.011
   0.57142857  0.50000000  0.00000000       0.011
   0.53571429  0.50000000  0.00000000       0.011
   0.50000000  0.50000000  0.00000000       0.011
 
 position of ions in fractional coordinates (direct lattice) 
   0.00000000  0.00000000  0.62992959
   0.50000000  0.50000000  0.62992959
   0.09787030  0.02996673  0.47096416
   0.59787029  0.52996674  0.47096416
   0.90212970  0.97003327  0.47096416
   0.40212970  0.47003327  0.47096416
   0.47003326  0.59787030  0.47096416
   0.97003327  0.09787030  0.47096416
   0.52996673  0.40212971  0.47096416
[...]
     12.31510     13.78893      8.64522        -0.064842     -0.091275     -0.528668
      2.03671      3.51054      8.64522        -0.054891     -0.093916     -0.526798
      8.24167      6.76784      8.64522         0.064842      0.091275     -0.528668
     18.52006     17.04623      8.64522         0.054891      0.093916     -0.526798
      5.62892     17.26818      7.91537         0.177044      0.262757     -0.028731
     15.90730      6.98980      7.91537         0.173349      0.261945     -0.025635
     14.92785      3.28859      7.91537        -0.177044     -0.262757     -0.028731
      4.64947     13.56697      7.91537        -0.173349     -0.261945     -0.025635
     13.56697     15.90730      7.91537        -0.262757      0.177044     -0.028731
      3.28859      5.62892      7.91537        -0.261945      0.173349     -0.025635
      6.98980      4.64947      7.91537         0.262757     -0.177044     -0.028731
     17.26818     14.92785      7.91537         0.261945     -0.173349     -0.025635
      5.69206     15.90626      7.93152         0.126390     -0.173983     -0.009474
     15.97045      5.62788      7.93152         0.132088     -0.168938     -0.005771
     14.86471      4.65051      7.93152        -0.126390      0.173983     -0.009474
      4.58632     14.92889      7.93152        -0.132088      0.168938     -0.005771
     14.92889     15.97045      7.93152         0.173983      0.126390     -0.009474
      4.65051      5.69206      7.93152         0.168938      0.132088     -0.005771
      5.62788      4.58632      7.93152        -0.173983     -0.126390     -0.009474
     15.90626     14.86471      7.93152        -0.168938     -0.132088     -0.005771
     13.42548      5.15799      7.87119        -0.314055      0.356602      1.339448
      3.14710     15.43638      7.87119        -0.300233      0.359776      1.329769
      7.13129     15.39878      7.87119         0.314055     -0.356602      1.339448
     17.40967      5.12039      7.87119         0.300233     -0.359776      1.329769
      5.12039      3.14710      7.87119        -0.356602     -0.314055      1.339448
     15.39878     13.42548      7.87119        -0.359776     -0.300233      1.329769
     15.43638     17.40967      7.87119         0.356602      0.314055      1.339448
      5.15799      7.13129      7.87119         0.359776      0.300233      1.329769
     13.00895      5.95158      6.74914         0.111472     -0.251176     -2.014151
      2.73057     16.22996      6.74914         0.091465     -0.234141     -2.013475
      7.54782     14.60519      6.74914        -0.111472      0.251176     -2.014151
     17.82620      4.32681      6.74914        -0.091465      0.234141     -2.013475
      4.32681      2.73057      6.74914         0.251176      0.111472     -2.014151
     14.60519     13.00895      6.74914         0.234141      0.091465     -2.013475
     16.22996     17.82620      6.74914        -0.251176     -0.111472     -2.014151
      5.95158      7.54782      6.74914        -0.234141     -0.091465     -2.013475
      1.50734     19.60212      9.18134         0.877335     -0.540590      0.378504
     11.78573      9.32373      9.18134         0.703752     -0.634202      0.226593
     19.04943      0.95465      9.18134        -0.877335      0.540590      0.378504
      8.77104     11.23304      9.18134        -0.703752      0.634202      0.226593
     11.23304     11.78573      9.18134         0.540590      0.877335      0.378504
      0.95465      1.50734      9.18134         0.634202      0.703752      0.226593
      9.32373      8.77104      9.18134        -0.540590     -0.877335      0.378504
     19.60212     19.04943      9.18134        -0.634202     -0.703752      0.226593
 -----------------------------------------------------------------------------------
    total drift:                                0.001230     -0.001049      0.599241


--------------------------------------------------------------------------------------------------------



  FREE ENERGIE OF THE ION-ELECTRON SYSTEM (eV)
  ---------------------------------------------------
  free  energy   TOTEN  =     -1039.04635702 eV

  energy  without entropy=    -1039.20946691  energy(sigma->0) =    -1039.10072698
 


--------------------------------------------------------------------------------------------------------


    POTLOK:  cpu time      0.3148: real time      0.3151


--------------------------------------------------------------------------------------------------------


     LOOP+:  cpu time   6020.5321: real time   6025.7640
    4ORBIT:  cpu time      0.0000: real time      0.0000



 total charge

# of ion       s       p       d       tot
------------------------------------------
    1        0.356   6.425   4.139  10.919
    2        0.356   6.425   4.139  10.919
    3        0.644   0.048   0.000   0.692
    4        0.644   0.048   0.000   0.692
    5        0.644   0.048   0.000   0.692
    6        0.644   0.048   0.000   0.692
    7        0.644   0.048   0.000   0.692
    8        0.644   0.048   0.000   0.692
    9        0.644   0.048   0.000   0.692
   10        0.644   0.048   0.000   0.692
   11        0.647   0.046   0.000   0.694
   12        0.647   0.046   0.000   0.694
   13        0.647   0.046   0.000   0.694
   14        0.647   0.046   0.000   0.694
   15        0.647   0.046   0.000   0.694
   16        0.647   0.046   0.000   0.694
   17        0.647   0.046   0.000   0.694
   18        0.647   0.046   0.000   0.694
   19        0.647   0.045   0.000   0.692
   20        0.647   0.045   0.000   0.692
   21        0.647   0.045   0.000   0.692
   22        0.647   0.045   0.000   0.692
   23        0.647   0.045   0.000   0.692
   24        0.647   0.045   0.000   0.692
   25        0.647   0.045   0.000   0.692
   26        0.647   0.045   0.000   0.692
   27        0.651   0.049   0.000   0.700
   28        0.651   0.049   0.000   0.700
   29        0.651   0.049   0.000   0.700
   30        0.651   0.049   0.000   0.700
   31        0.651   0.049   0.000   0.700
   32        0.651   0.049   0.000   0.700
   33        0.651   0.049   0.000   0.700
   34        0.651   0.049   0.000   0.700
   35        0.645   0.045   0.000   0.690
   36        0.645   0.045   0.000   0.690
   37        0.645   0.045   0.000   0.690
   38        0.645   0.045   0.000   0.690
   39        0.645   0.045   0.000   0.690
   40        0.645   0.045   0.000   0.690
   41        0.645   0.045   0.000   0.690
   42        0.645   0.045   0.000   0.690
   43        0.655   0.043   0.000   0.698
   44        0.655   0.043   0.000   0.698
   45        0.655   0.043   0.000   0.698
   46        0.655   0.043   0.000   0.698
   47        0.655   0.043   0.000   0.698
   48        0.655   0.043   0.000   0.698
   49        0.655   0.043   0.000   0.698
   50        0.655   0.043   0.000   0.698
   51        0.625   0.037   0.000   0.662
   52        0.625   0.037   0.000   0.663
   53        0.625   0.037   0.000   0.662
   54        0.625   0.037   0.000   0.663
   55        0.625   0.037   0.000   0.662
   56        0.625   0.037   0.000   0.663
   57        0.625   0.037   0.000   0.662
   58        0.625   0.037   0.000   0.663
   59        0.612   0.065   0.000   0.677
   60        0.612   0.065   0.000   0.677
   61        0.612   0.065   0.000   0.677
   62        0.612   0.065   0.000   0.677
   63        0.612   0.065   0.000   0.677
   64        0.612   0.065   0.000   0.677
   65        0.612   0.065   0.000   0.677
   66        0.612   0.065   0.000   0.677
   67        0.647   0.088   0.000   0.735
   68        0.647   0.088   0.000   0.735
   69        0.647   0.088   0.000   0.735
   70        0.647   0.088   0.000   0.735
   71        0.647   0.088   0.000   0.735
   72        0.647   0.088   0.000   0.735
   73        0.647   0.088   0.000   0.735
   74        0.647   0.088   0.000   0.735
   75        0.861   1.738   0.000   2.599
   76        0.861   1.738   0.000   2.599
   77        0.861   1.738   0.000   2.599
   78        0.861   1.738   0.000   2.599
   79        0.861   1.738   0.000   2.599
   80        0.861   1.738   0.000   2.599
   81        0.861   1.738   0.000   2.599
   82        0.861   1.738   0.000   2.599
   83        0.873   1.791   0.000   2.663
   84        0.873   1.791   0.000   2.663
   85        0.873   1.791   0.000   2.663
   86        0.873   1.791   0.000   2.663
   87        0.873   1.791   0.000   2.663
   88        0.873   1.791   0.000   2.663
   89        0.873   1.791   0.000   2.663
   90        0.873   1.791   0.000   2.663
   91        0.873   1.767   0.000   2.640
   92        0.873   1.767   0.000   2.640
   93        0.873   1.767   0.000   2.640
   94        0.873   1.767   0.000   2.640
   95        0.873   1.767   0.000   2.640
   96        0.873   1.767   0.000   2.640
   97        0.873   1.767   0.000   2.640
   98        0.873   1.767   0.000   2.640
   99        0.871   1.780   0.000   2.651
  100        0.871   1.780   0.000   2.651
  101        0.871   1.780   0.000   2.651
  102        0.871   1.780   0.000   2.651
  103        0.871   1.780   0.000   2.651
  104        0.871   1.780   0.000   2.651
  105        0.871   1.780   0.000   2.651
  106        0.871   1.780   0.000   2.651
  107        0.865   1.774   0.000   2.638
  108        0.865   1.774   0.000   2.638
  109        0.865   1.774   0.000   2.638
  110        0.865   1.774   0.000   2.638
  111        0.865   1.774   0.000   2.638
  112        0.865   1.774   0.000   2.638
  113        0.865   1.774   0.000   2.638
  114        0.865   1.774   0.000   2.638
  115        0.871   1.779   0.000   2.650
  116        0.870   1.780   0.000   2.650
  117        0.871   1.779   0.000   2.650
  118        0.870   1.780   0.000   2.650
  119        0.871   1.779   0.000   2.650
  120        0.870   1.780   0.000   2.650
  121        0.871   1.779   0.000   2.650
  122        0.870   1.780   0.000   2.650
  123        0.869   1.744   0.000   2.612
  124        0.869   1.744   0.000   2.612
  125        0.869   1.744   0.000   2.612
  126        0.869   1.744   0.000   2.612
  127        0.869   1.744   0.000   2.612
  128        0.869   1.744   0.000   2.612
  129        0.869   1.744   0.000   2.612
  130        0.869   1.744   0.000   2.612
  131        0.861   1.726   0.000   2.587
  132        0.861   1.727   0.000   2.588
  133        0.861   1.726   0.000   2.587
  134        0.861   1.727   0.000   2.588
  135        0.861   1.726   0.000   2.587
  136        0.861   1.727   0.000   2.588
  137        0.861   1.726   0.000   2.587
  138        0.861   1.727   0.000   2.588
  139        0.832   1.744   0.000   2.576
  140        0.832   1.744   0.000   2.576
  141        0.832   1.744   0.000   2.576
  142        0.832   1.744   0.000   2.576
  143        0.832   1.744   0.000   2.576
  144        0.832   1.744   0.000   2.576
  145        0.832   1.744   0.000   2.576
  146        0.832   1.744   0.000   2.576
  147        1.226   2.699   0.000   3.925
  148        1.226   2.701   0.000   3.926
  149        1.226   2.699   0.000   3.925
  150        1.226   2.701   0.000   3.926
  151        1.226   2.699   0.000   3.925
  152        1.226   2.701   0.000   3.926
  153        1.226   2.699   0.000   3.925
  154        1.226   2.701   0.000   3.926
  155        1.565   3.572   0.000   5.137
  156        1.565   3.571   0.000   5.136
  157        1.565   3.572   0.000   5.137
  158        1.565   3.571   0.000   5.136
  159        1.565   3.572   0.000   5.137
  160        1.565   3.571   0.000   5.136
  161        1.565   3.572   0.000   5.137
  162        1.565   3.571   0.000   5.136
--------------------------------------------------
tot        131.420 193.500   8.277 333.197



 magnetization (x)

# of ion       s       p       d       tot
------------------------------------------
    1        0.071   0.030   2.364   2.465
    2       -0.071  -0.030  -2.364  -2.465
    3        0.001  -0.000   0.000   0.000
    4       -0.001   0.000   0.000  -0.000
    5        0.001  -0.000   0.000   0.000
    6       -0.001   0.000   0.000  -0.000
    7       -0.001   0.000   0.000  -0.000
    8        0.001  -0.000   0.000   0.000
    9       -0.001   0.000   0.000  -0.000
   10        0.001  -0.000   0.000   0.000
   11       -0.000   0.000   0.000  -0.000
   12        0.000  -0.000   0.000   0.000
   13       -0.000   0.000   0.000  -0.000
   14        0.000  -0.000   0.000   0.000
   15        0.000  -0.000   0.000   0.000
   16       -0.000   0.000   0.000  -0.000
   17        0.000  -0.000   0.000   0.000
   18       -0.000   0.000   0.000  -0.000
   19        0.001  -0.000   0.000   0.000
   20       -0.001   0.000   0.000  -0.000
   21        0.001  -0.000   0.000   0.000
   22       -0.001   0.000   0.000  -0.000
   23       -0.001   0.000   0.000  -0.000
   24        0.001  -0.000   0.000   0.000
   25       -0.001   0.000   0.000  -0.000
   26        0.001  -0.000   0.000   0.000
   27        0.000  -0.000   0.000   0.000
   28       -0.000   0.000   0.000  -0.000
   29        0.000  -0.000   0.000   0.000
   30       -0.000   0.000   0.000  -0.000
   31       -0.000   0.000   0.000  -0.000
   32        0.000  -0.000   0.000   0.000
   33       -0.000   0.000   0.000  -0.000
   34        0.000  -0.000   0.000   0.000
   35        0.000   0.000   0.000   0.000
   36       -0.000  -0.000   0.000  -0.000
   37        0.000   0.000   0.000   0.000
   38       -0.000  -0.000   0.000  -0.000
   39       -0.000  -0.000   0.000  -0.000
   40        0.000   0.000   0.000   0.000
   41       -0.000  -0.000   0.000  -0.000
   42        0.000   0.000   0.000   0.000
   43        0.000  -0.000   0.000   0.000
   44       -0.000   0.000   0.000  -0.000
   45        0.000  -0.000   0.000   0.000
   46       -0.000   0.000   0.000  -0.000
   47       -0.000   0.000   0.000  -0.000
   48        0.000  -0.000   0.000   0.000
   49       -0.000   0.000   0.000  -0.000
   50        0.000  -0.000   0.000   0.000
   51       -0.000  -0.000   0.000  -0.000
   52        0.000  -0.000   0.000   0.000
   53       -0.000  -0.000   0.000  -0.000
   54        0.000  -0.000   0.000   0.000
   55        0.000   0.000   0.000   0.000
   56       -0.000   0.000   0.000  -0.000
   57        0.000   0.000   0.000   0.000
   58       -0.000   0.000   0.000  -0.000
   59        0.000   0.000   0.000   0.000
   60       -0.000  -0.000   0.000  -0.000
   61        0.000   0.000   0.000   0.000
   62       -0.000  -0.000   0.000  -0.000
   63       -0.000  -0.000   0.000  -0.000
   64        0.000   0.000   0.000   0.000
   65       -0.000  -0.000   0.000  -0.000
   66        0.000   0.000   0.000   0.000
   67       -0.000   0.000   0.000  -0.000
   68        0.000  -0.000   0.000   0.000
   69       -0.000   0.000   0.000  -0.000
   70        0.000  -0.000   0.000   0.000
   71        0.000  -0.000   0.000   0.000
   72       -0.000   0.000   0.000  -0.000
   73        0.000  -0.000   0.000   0.000
   74       -0.000   0.000   0.000  -0.000
   75        0.001  -0.001   0.000  -0.000
   76       -0.001   0.001   0.000   0.000
   77        0.001  -0.001   0.000  -0.000
   78       -0.001   0.001   0.000   0.000
   79       -0.001   0.001   0.000   0.000
   80        0.001  -0.001   0.000  -0.000
   81       -0.001   0.001   0.000   0.000
   82        0.001  -0.001   0.000  -0.000
   83       -0.001  -0.022   0.000  -0.023
   84        0.001   0.021   0.000   0.022
   85       -0.001  -0.022   0.000  -0.023
   86        0.001   0.021   0.000   0.022
   87        0.001   0.022   0.000   0.023
   88       -0.001  -0.021   0.000  -0.022
   89        0.001   0.022   0.000   0.023
   90       -0.001  -0.021   0.000  -0.022
   91        0.001   0.006   0.000   0.007
   92       -0.001  -0.006   0.000  -0.007
   93        0.001   0.006   0.000   0.007
   94       -0.001  -0.006   0.000  -0.007
   95       -0.001  -0.006   0.000  -0.007
   96        0.001   0.006   0.000   0.007
   97       -0.001  -0.006   0.000  -0.007
   98        0.001   0.006   0.000   0.007
   99       -0.001  -0.024   0.000  -0.026
  100        0.001   0.023   0.000   0.025
  101       -0.001  -0.024   0.000  -0.026
  102        0.001   0.023   0.000   0.025
  103        0.001   0.024   0.000   0.026
  104       -0.001  -0.023   0.000  -0.025
  105        0.001   0.024   0.000   0.026
  106       -0.001  -0.023   0.000  -0.025
  107        0.000   0.004   0.000   0.004
  108       -0.000  -0.004   0.000  -0.004
  109        0.000   0.004   0.000   0.004
  110       -0.000  -0.004   0.000  -0.004
  111       -0.000  -0.004   0.000  -0.004
  112        0.000   0.004   0.000   0.004
  113       -0.000  -0.004   0.000  -0.004
  114        0.000   0.004   0.000   0.004
  115       -0.001  -0.012   0.000  -0.013
  116        0.001   0.012   0.000   0.013
  117       -0.001  -0.012   0.000  -0.013
  118        0.001   0.012   0.000   0.013
  119        0.001   0.012   0.000   0.013
  120       -0.001  -0.012   0.000  -0.013
  121        0.001   0.012   0.000   0.013
  122       -0.001  -0.012   0.000  -0.013
  123        0.000   0.001   0.000   0.001
  124       -0.000  -0.002   0.000  -0.002
  125        0.000   0.001   0.000   0.001
  126       -0.000  -0.002   0.000  -0.002
  127       -0.000  -0.001   0.000  -0.001
  128        0.000   0.002   0.000   0.002
  129       -0.000  -0.001   0.000  -0.001
  130        0.000   0.002   0.000   0.002
  131        0.000   0.000   0.000   0.000
  132       -0.000   0.000   0.000  -0.000
  133        0.000   0.000   0.000   0.000
  134       -0.000   0.000   0.000  -0.000
  135       -0.000  -0.000   0.000  -0.000
  136        0.000  -0.000   0.000   0.000
  137       -0.000  -0.000   0.000  -0.000
  138        0.000  -0.000   0.000   0.000
  139       -0.000   0.000   0.000  -0.000
  140        0.000  -0.000   0.000   0.000
  141       -0.000   0.000   0.000  -0.000
  142        0.000  -0.000   0.000   0.000
  143        0.000  -0.000   0.000   0.000
  144       -0.000   0.000   0.000  -0.000
  145        0.000  -0.000   0.000   0.000
  146       -0.000   0.000   0.000  -0.000
  147        0.001   0.009   0.000   0.010
  148       -0.001  -0.007   0.000  -0.008
  149        0.001   0.009   0.000   0.010
  150       -0.001  -0.007   0.000  -0.008
  151       -0.001  -0.009   0.000  -0.010
  152        0.001   0.007   0.000   0.008
  153       -0.001  -0.009   0.000  -0.010
  154        0.001   0.007   0.000   0.008
  155       -0.003  -0.071   0.000  -0.075
  156        0.003   0.077   0.000   0.080
  157       -0.003  -0.071   0.000  -0.075
  158        0.003   0.077   0.000   0.080
  159        0.003   0.071   0.000   0.075
  160       -0.003  -0.077   0.000  -0.080
  161        0.003   0.071   0.000   0.075
  162       -0.003  -0.077   0.000  -0.080
--------------------------------------------------
tot          0.000   0.000   0.000   0.000
 

 total amount of memory used by VASP MPI-rank0  3212134. kBytes
=======================================================================

   base      :      30000. kBytes
   nonlr-proj:       5129. kBytes
   fftplans  :      15729. kBytes
   grid      :      42147. kBytes
   one-center:        435. kBytes
   wavefun   :    3118694. kBytes
 
  
  
 General timing and accounting informations for this job:
 ========================================================
  
                  Total CPU time used (sec):     6503.014
                            User time (sec):     6477.330
                          System time (sec):       25.684
                         Elapsed time (sec):     6511.001
  
                   Maximum memory used (kb):     4008964.
                   Average memory used (kb):          N/A
  
                          Minor page faults:       979238
                          Major page faults:            6
                 Voluntary context switches:       226696
