 vasp.6.3.2 27Jun22 (build Aug 02 2025 14:55:03) complex                        
  
 executed on             LinuxIFC date 2025.11.28  16:52:55
 running on   48 total cores
 distrk:  each k-point on   48 cores,    1 groups
 distr:  one band on NCORE=  12 cores,    4 groups


--------------------------------------------------------------------------------------------------------


 INCAR:
   PREC = Normal
   ENCUT = 500
   IBRION = -1
   ISPIN = 2
   MAGMOM = 5 -5 4*1 4*-1 4*1 4*-1 4*1 4*-1 4*1 4*-1 4*1 4*-1 4*1 4*-1 4*1 4*-1 4*1 4*-1 4*1 4*-1 4*1 4*-1 4*1 4*-1 4*1 4*-1 4*1 4*-1 4*1 4*-1 4*1 4*-1 4*1 4*-1 4*1 4*-1 4*1 4*-1 4*1 4*-1 4*1 4*-1 4*1 4*-1 4*1 4*-1 4*1 4*-1 4*1 4*-1 4*1 4*-1 4*1 4*-1 4*1 4*-1 4*1 4*-1 4*1 4*-1 4*1 4*-1 4*1 4*-1 4*1 4*-1 4*1 4*-1 4*1 4*-1 4*1 4*-1 4*1 4*-1 4*1 4*-1 4*1 4*-1 4*1 4*-1
   NSW = 0
   NELM = 200
   ISIF = 2
   EDIFF = 1E-5
   EDIFFG = -0.01
   ALGO = Fast
   ISTART = 1
   ICHARG = 11
   LREAL = Auto
   LWAVE = .F.
   LCHARG = .F.
   LVTOT = .T.
   NPAR = 4
   AMIX = 0.2
   BMIX = 0.0001
   AMIX_MAG = 0.8
   BMIX_MAG = 0.0001
   LDAU = .TRUE.
   LDAUTYPE = 2
   LDAUL = 2 -1 -1 -1 -1 -1
   LDAUU = 3.0 0 0 0 0 0
   LDAUJ = 1.0 0 0 0 0 0
   LMAXMIX = 4
   LORBIT = 11

 POTCAR:    PAW_PBE Cr_pv 02Aug2007               
 POTCAR:    PAW_PBE H 15Jun2001                   
 POTCAR:    PAW_PBE C 08Apr2002                   
 POTCAR:    PAW_PBE N 08Apr2002                   
 WARNING: For LVTOT=.TRUE., VASP.5.x writes the TOTAL local potential to the
     file LOCPOT. If you want only the Hartree contributions, use LVHAR=.TRUE.
     instead. 

 POTCAR:    PAW_PBE Cr_pv 02Aug2007               
   SHA256 =  c9a7df34d3cdbacf1090e328ef39c0b420964e11c23f63548d1ac9dd218cdba0 Cr_pv/POTCAR          
   COPYR  = (c) Copyright 02Aug2007 Georg Kresse                                                    
   COPYR  = This file is part of the software VASP. Any use, copying, and all other rights are regul
   COPYR  = If you do not have a valid VASP license, you may not use, copy or distribute this file. 
   VRHFIN =Cr : p6d5s1                                                                              
   LEXCH  = PE                                                                                      
   EATOM  =  1647.9177 eV,  121.1185 Ry                                                             
                                                                                                    
   TITEL  = PAW_PBE Cr_pv 02Aug2007                                                                 
   LULTRA =        F    use ultrasoft PP ?                                                          
   IUNSCR =        1    unscreen: 0-lin 1-nonlin 2-no                                               
   RPACOR =    2.080    partial core radius                                                         
   POMASS =   51.996; ZVAL   =   12.000    mass and valenz                                          
   RCORE  =    2.300    outmost cutoff radius                                                       
   RWIGS  =    2.500; RWIGS  =    1.323    wigner-seitz radius (au A)                               
   ENMAX  =  265.681; ENMIN  =  199.261 eV                                                          
   ICORE  =        3    local potential                                                             
   LCOR   =        T    correct aug charges                                                         
   LPAW   =        T    paw PP                                                                      
   EAUG   =  519.424                                                                                
   DEXC   =    0.000                                                                                
   RMAX   =    2.356    core radius for proj-oper                                                   
   RAUG   =    1.300    factor for augmentation sphere                                              
   RDEP   =    2.447    radius for radial grids                                                     
   RDEPT  =    1.882    core radius for aug-charge                                                  
                                                                                                    
   Atomic configuration                                                                             
    8 entries                                                                                       
     n  l   j            E        occ.                                                              
     1  0  0.50     -5880.4963   2.0000                                                             
     2  0  0.50      -667.0865   2.0000                                                             
     2  1  1.50      -560.6250   6.0000                                                             
     3  0  0.50       -73.9860   2.0000                                                             
     3  1  1.50       -45.4378   6.0000                                                             
     3  2  2.50        -2.9137   5.0000                                                             
     4  0  0.50        -4.0071   1.0000                                                             
     4  3  2.50        -1.3606   0.0000                                                             
   Description                                                                                      
     l       E           TYP  RCUT    TYP  RCUT                                                     
     1    -45.4377911     23  2.000                                                                 
     1      1.3605826     23  2.000                                                                 
     2     -2.9136672     23  2.300                                                                 
     2     -4.2742498     23  2.300                                                                 
     0     -4.0071320     23  2.300                                                                 
     0      9.4498803     23  2.300                                                                 
     3      2.7211652     23  2.300                                                                 
  local pseudopotential read in
  partial core-charges read in
  partial kinetic energy density read in
  atomic valenz-charges read in
  non local Contribution for L=           1  read in
    real space projection operators read in
  non local Contribution for L=           1  read in
    real space projection operators read in
  non local Contribution for L=           2  read in
    real space projection operators read in
  non local Contribution for L=           2  read in
    real space projection operators read in
  non local Contribution for L=           0  read in
    real space projection operators read in
  non local Contribution for L=           0  read in
    real space projection operators read in
    PAW grid and wavefunctions read in
 
   number of l-projection  operators is LMAX  =           6
   number of lm-projection operators is LMMAX =          18
 
 POTCAR:    PAW_PBE H 15Jun2001                   
   SHA256 =  030f79b5d3ab3cf0e668861823c8fb652ff669f3e15e46930bd03bfd63a607b6 H/POTCAR              
   COPYR  = (c) Copyright 15Jun2001 Georg Kresse                                                    
   COPYR  = This file is part of the software VASP. Any use, copying, and all other rights are regul
   COPYR  = If you do not have a valid VASP license, you may not use, copy or distribute this file. 
   VRHFIN =H: ultrasoft test                                                                        
   LEXCH  = PE                                                                                      
   EATOM  =    12.4884 eV,    0.9179 Ry                                                             
                                                                                                    
   TITEL  = PAW_PBE H 15Jun2001                                                                     
   LULTRA =        F    use ultrasoft PP ?                                                          
   IUNSCR =        0    unscreen: 0-lin 1-nonlin 2-no                                               
   RPACOR =    0.000    partial core radius                                                         
   POMASS =    1.000; ZVAL   =    1.000    mass and valenz                                          
   RCORE  =    1.100    outmost cutoff radius                                                       
   RWIGS  =    0.700; RWIGS  =    0.370    wigner-seitz radius (au A)                               
   ENMAX  =  250.000; ENMIN  =  200.000 eV                                                          
   RCLOC  =    0.701    cutoff for local pot                                                        
   LCOR   =        T    correct aug charges                                                         
   LPAW   =        T    paw PP                                                                      
   EAUG   =  400.000                                                                                
   RMAX   =    1.123    core radius for proj-oper                                                   
   RAUG   =    1.200    factor for augmentation sphere                                              
   RDEP   =    1.112    radius for radial grids                                                     
   RDEPT  =    0.926    core radius for aug-charge                                                  
                                                                                                    
   Atomic configuration                                                                             
    2 entries                                                                                       
     n  l   j            E        occ.                                                              
     1  0  0.50        -6.4927   1.0000                                                             
     2  1  0.50        -3.4015   0.0000                                                             
   Description                                                                                      
     l       E           TYP  RCUT    TYP  RCUT                                                     
     0     -6.4927494     23  1.100                                                                 
     0      6.8029130     23  1.100                                                                 
     1     -4.0817478     23  1.100                                                                 
  local pseudopotential read in
  atomic valenz-charges read in
  non local Contribution for L=           0  read in
    real space projection operators read in
  non local Contribution for L=           0  read in
    real space projection operators read in
  non local Contribution for L=           1  read in
    real space projection operators read in
    PAW grid and wavefunctions read in
 
   number of l-projection  operators is LMAX  =           3
   number of lm-projection operators is LMMAX =           5
 
 POTCAR:    PAW_PBE C 08Apr2002                   
   SHA256 =  253f7b50bb8d59471dbedb8285d89021f4a42ed1a2c5d38a03a736e69125dd95 C/POTCAR              
   COPYR  = (c) Copyright 08Apr2002 Georg Kresse                                                    
   COPYR  = This file is part of the software VASP. Any use, copying, and all other rights are regul
   COPYR  = If you do not have a valid VASP license, you may not use, copy or distribute this file. 
   VRHFIN =C: s2p2                                                                                  
   LEXCH  = PE                                                                                      
   EATOM  =   147.1560 eV,   10.8157 Ry                                                             
                                                                                                    
   TITEL  = PAW_PBE C 08Apr2002                                                                     
   LULTRA =        F    use ultrasoft PP ?                                                          
   IUNSCR =        1    unscreen: 0-lin 1-nonlin 2-no                                               
   RPACOR =    1.200    partial core radius                                                         
   POMASS =   12.011; ZVAL   =    4.000    mass and valenz                                          
   RCORE  =    1.500    outmost cutoff radius                                                       
   RWIGS  =    1.630; RWIGS  =    0.863    wigner-seitz radius (au A)                               
   ENMAX  =  400.000; ENMIN  =  300.000 eV                                                          
   ICORE  =        2    local potential                                                             
   LCOR   =        T    correct aug charges                                                         
   LPAW   =        T    paw PP                                                                      
   EAUG   =  644.873                                                                                
   DEXC   =    0.000                                                                                
   RMAX   =    1.529    core radius for proj-oper                                                   
   RAUG   =    1.300    factor for augmentation sphere                                              
   RDEP   =    1.501    radius for radial grids                                                     
   RDEPT  =    1.300    core radius for aug-charge                                                  
                                                                                                    
   Atomic configuration                                                                             
    4 entries                                                                                       
     n  l   j            E        occ.                                                              
     1  0  0.50      -273.3789   2.0000                                                             
     2  0  0.50       -13.7508   2.0000                                                             
     2  1  0.50        -5.2854   2.0000                                                             
     3  2  1.50        -5.4423   0.0000                                                             
   Description                                                                                      
     l       E           TYP  RCUT    TYP  RCUT                                                     
     0    -13.7508458     23  1.200                                                                 
     0     -8.2022199     23  1.200                                                                 
     1     -5.2854383     23  1.500                                                                 
     1     34.0145650     23  1.500                                                                 
     2     -5.4423304      7  1.500                                                                 
  local pseudopotential read in
  partial core-charges read in
  partial kinetic energy density read in
  atomic valenz-charges read in
  non local Contribution for L=           0  read in
    real space projection operators read in
  non local Contribution for L=           0  read in
    real space projection operators read in
  non local Contribution for L=           1  read in
    real space projection operators read in
  non local Contribution for L=           1  read in
    real space projection operators read in
    PAW grid and wavefunctions read in
 
   number of l-projection  operators is LMAX  =           4
   number of lm-projection operators is LMMAX =           8
 
 POTCAR:    PAW_PBE N 08Apr2002                   
   SHA256 =  e053789ff3a61a86a1b75d8a110fcc91f86041011e7b0817c7c99e4e8a6349d7 N/POTCAR              
   COPYR  = (c) Copyright 08Apr2002 Georg Kresse                                                    
   COPYR  = This file is part of the software VASP. Any use, copying, and all other rights are regul
   COPYR  = If you do not have a valid VASP license, you may not use, copy or distribute this file. 
   VRHFIN =N: s2p3                                                                                  
   LEXCH  = PE                                                                                      
   EATOM  =   264.5486 eV,   19.4438 Ry                                                             
                                                                                                    
   TITEL  = PAW_PBE N 08Apr2002                                                                     
   LULTRA =        F    use ultrasoft PP ?                                                          
   IUNSCR =        1    unscreen: 0-lin 1-nonlin 2-no                                               
   RPACOR =    1.200    partial core radius                                                         
   POMASS =   14.001; ZVAL   =    5.000    mass and valenz                                          
   RCORE  =    1.500    outmost cutoff radius                                                       
   RWIGS  =    1.400; RWIGS  =    0.741    wigner-seitz radius (au A)                               
   ENMAX  =  400.000; ENMIN  =  300.000 eV                                                          
   ICORE  =        2    local potential                                                             
   LCOR   =        T    correct aug charges                                                         
   LPAW   =        T    paw PP                                                                      
   EAUG   =  627.112                                                                                
   DEXC   =    0.000                                                                                
   RMAX   =    1.529    core radius for proj-oper                                                   
   RAUG   =    1.300    factor for augmentation sphere                                              
   RDEP   =    1.514    radius for radial grids                                                     
   RDEPT  =    1.338    core radius for aug-charge                                                  
                                                                                                    
   Atomic configuration                                                                             
    4 entries                                                                                       
     n  l   j            E        occ.                                                              
     1  0  0.50      -384.7179   2.0000                                                             
     2  0  0.50       -18.5828   2.0000                                                             
     2  1  0.50        -7.0898   3.0000                                                             
     3  2  1.50        -6.8029   0.0000                                                             
   Description                                                                                      
     l       E           TYP  RCUT    TYP  RCUT                                                     
     0    -18.5828119     23  1.200                                                                 
     0    -13.5018863     23  1.200                                                                 
     1     -7.0897853     23  1.500                                                                 
     1      9.5240782     23  1.500                                                                 
     2     -6.8029130      7  1.500                                                                 
  local pseudopotential read in
  partial core-charges read in
  partial kinetic energy density read in
  atomic valenz-charges read in
  non local Contribution for L=           0  read in
    real space projection operators read in
  non local Contribution for L=           0  read in
    real space projection operators read in
  non local Contribution for L=           1  read in
    real space projection operators read in
  non local Contribution for L=           1  read in
    real space projection operators read in
    PAW grid and wavefunctions read in
 
   number of l-projection  operators is LMAX  =           4
   number of lm-projection operators is LMMAX =           8
 
 Optimization of the real space projectors (new method)

 maximal supplied QI-value         = 16.25
 optimisation between [QCUT,QGAM] = [ 11.38, 22.75] = [ 36.24,144.96] Ry 
 Optimized for a Real-space Cutoff    1.31 Angstroem

   l    n(q)    QCUT    max X(q) W(low)/X(q) W(high)/X(q)  e(spline) 
   1      8    11.376     3.262    0.15E-03    0.36E-03    0.86E-07
   1      8    11.376     5.741    0.39E-03    0.84E-03    0.21E-06
   2      8    11.376    60.438    0.39E-03    0.55E-03    0.20E-06
   2      8    11.376    55.380    0.40E-03    0.57E-03    0.20E-06
   0      9    11.376    80.273    0.17E-03    0.16E-03    0.48E-07
   0      9    11.376    36.654    0.15E-03    0.14E-03    0.43E-07
 Optimization of the real space projectors (new method)

 maximal supplied QI-value         = 34.20
 optimisation between [QCUT,QGAM] = [ 11.29, 22.57] = [ 35.68,142.71] Ry 
 Optimized for a Real-space Cutoff    1.16 Angstroem

   l    n(q)    QCUT    max X(q) W(low)/X(q) W(high)/X(q)  e(spline) 
   0      8    11.287    19.460    0.40E-03    0.73E-03    0.16E-06
   0      8    11.287    12.209    0.38E-03    0.70E-03    0.15E-06
   1      7    11.287     4.655    0.22E-03    0.25E-04    0.22E-06
 Optimization of the real space projectors (new method)

 maximal supplied QI-value         = 25.13
 optimisation between [QCUT,QGAM] = [ 11.31, 22.87] = [ 35.82,146.48] Ry 
 Optimized for a Real-space Cutoff    1.00 Angstroem

   l    n(q)    QCUT    max X(q) W(low)/X(q) W(high)/X(q)  e(spline) 
   0      7    11.310   115.676    0.43E-03    0.13E-02    0.19E-06
   0      7    11.310    87.132    0.43E-03    0.13E-02    0.18E-06
   1      6    11.310     4.429    0.42E-03    0.74E-03    0.11E-06
   1      6    11.310     2.733    0.34E-03    0.55E-03    0.92E-07
 Optimization of the real space projectors (new method)

 maximal supplied QI-value         = 25.13
 optimisation between [QCUT,QGAM] = [ 11.31, 22.87] = [ 35.82,146.48] Ry 
 Optimized for a Real-space Cutoff    1.27 Angstroem

   l    n(q)    QCUT    max X(q) W(low)/X(q) W(high)/X(q)  e(spline) 
   0      9    11.310    79.467    0.75E-04    0.16E-03    0.36E-06
   0      9    11.310    66.151    0.74E-04    0.16E-03    0.36E-06
   1      8    11.310    17.416    0.35E-03    0.12E-03    0.95E-06
   1      8    11.310    12.382    0.37E-03    0.13E-03    0.98E-06
  PAW_PBE Cr_pv 02Aug2007               :
 energy of atom  1       EATOM=-1647.9177
 kinetic energy error for atom=    0.0061 (will be added to EATOM!!)
  PAW_PBE H 15Jun2001                   :
 energy of atom  2       EATOM=  -12.4884
 kinetic energy error for atom=    0.0020 (will be added to EATOM!!)
  PAW_PBE C 08Apr2002                   :
 energy of atom  3       EATOM= -147.1560
 kinetic energy error for atom=    0.0076 (will be added to EATOM!!)
  PAW_PBE N 08Apr2002                   :
 energy of atom  4       EATOM= -264.5486
 kinetic energy error for atom=    0.0138 (will be added to EATOM!!)
 
 
 POSCAR: Cr2 H32 C56 N8
  positions in direct lattice
  No initial velocities read in
 exchange correlation table for  LEXCH =        8
   RHO(1)=    0.500       N(1)  =     2000
   RHO(2)=  100.500       N(2)  =     4000
 


--------------------------------------------------------------------------------------------------------


 ion  position               nearest neighbor table
   1  0.000  0.000  0.500-  91 2.42  93 2.42  96 2.42  98 2.42
   2  0.500  0.500  0.500-  92 2.42  94 2.42  95 2.42  97 2.42
   3  0.017  0.206  0.500-  35 1.08
   4  0.517  0.706  0.500-  36 1.08
   5  0.983  0.794  0.500-  37 1.08
   6  0.483  0.294  0.500-  38 1.08
   7  0.294  0.517  0.500-  39 1.08
   8  0.794  0.017  0.500-  40 1.08
   9  0.706  0.483  0.500-  41 1.08
  10  0.206  0.983  0.500-  42 1.08
  11  0.645  0.535  0.500-  59 1.06
  12  0.145  0.035  0.500-  60 1.06
  13  0.355  0.465  0.500-  61 1.06
  14  0.855  0.965  0.500-  62 1.06
  15  0.965  0.145  0.500-  63 1.06
  16  0.465  0.645  0.500-  64 1.06
  17  0.035  0.855  0.500-  65 1.06
  18  0.535  0.355  0.500-  66 1.06
  19  0.781  0.610  0.500-  67 1.09
  20  0.281  0.110  0.500-  68 1.09
  21  0.219  0.390  0.500-  69 1.09
  22  0.719  0.890  0.500-  70 1.09
  23  0.890  0.281  0.500-  71 1.09
  24  0.390  0.781  0.500-  72 1.09
  25  0.110  0.719  0.500-  73 1.09
  26  0.610  0.219  0.500-  74 1.09
  27  0.122  0.313  0.500-  83 1.09
  28  0.622  0.813  0.500-  84 1.09
  29  0.878  0.687  0.500-  85 1.09
  30  0.378  0.187  0.500-  86 1.09
  31  0.187  0.622  0.500-  87 1.09
  32  0.687  0.122  0.500-  88 1.09
  33  0.813  0.378  0.500-  89 1.09
  34  0.313  0.878  0.500-  90 1.09
  35  0.063  0.176  0.500-   3 1.08  91 1.38  43 1.41
  36  0.563  0.676  0.500-   4 1.08  92 1.38  44 1.41
  37  0.937  0.824  0.500-   5 1.08  93 1.38  45 1.41
  38  0.437  0.324  0.500-   6 1.08  94 1.38  46 1.41
  39  0.324  0.563  0.500-   7 1.08  95 1.38  47 1.41
  40  0.824  0.063  0.500-   8 1.08  96 1.38  48 1.41
  41  0.676  0.437  0.500-   9 1.08  97 1.38  49 1.41
  42  0.176  0.937  0.500-  10 1.08  98 1.38  50 1.41
  43  0.130  0.203  0.500-  83 1.39  35 1.41  52 1.45
  44  0.630  0.703  0.500-  84 1.39  36 1.41  51 1.45
  45  0.870  0.797  0.500-  85 1.39  37 1.41  54 1.45
  46  0.370  0.297  0.500-  86 1.39  38 1.41  53 1.45
  47  0.297  0.630  0.500-  87 1.39  39 1.41  56 1.45
  48  0.797  0.130  0.500-  88 1.39  40 1.41  55 1.45
  49  0.703  0.370  0.500-  89 1.39  41 1.41  58 1.45
  50  0.203  0.870  0.500-  90 1.39  42 1.41  57 1.45
  51  0.675  0.645  0.500-  67 1.39  59 1.41  44 1.45
  52  0.175  0.145  0.500-  68 1.39  60 1.41  43 1.45
  53  0.325  0.355  0.500-  69 1.39  61 1.41  46 1.45
  54  0.825  0.855  0.500-  70 1.39  62 1.41  45 1.45
  55  0.855  0.175  0.500-  71 1.39  63 1.41  48 1.45
  56  0.355  0.675  0.500-  72 1.39  64 1.41  47 1.45
  57  0.145  0.825  0.500-  73 1.39  65 1.41  50 1.45
  58  0.645  0.325  0.500-  74 1.39  66 1.41  49 1.45
  59  0.632  0.588  0.500-  11 1.06  92 1.36  51 1.41
  60  0.132  0.088  0.500-  12 1.06  91 1.36  52 1.41
  61  0.368  0.412  0.500-  13 1.06  94 1.36  53 1.41
  62  0.868  0.912  0.500-  14 1.06  93 1.36  54 1.41
  63  0.912  0.132  0.500-  15 1.06  96 1.36  55 1.41
  64  0.412  0.632  0.500-  16 1.06  95 1.36  56 1.41
  65  0.088  0.868  0.500-  17 1.06  98 1.36  57 1.41
  66  0.588  0.368  0.500-  18 1.06  97 1.36  58 1.41
  67  0.746  0.654  0.500-  19 1.09  51 1.39  75 1.41
  68  0.246  0.154  0.500-  20 1.09  52 1.39  76 1.41
  69  0.254  0.346  0.500-  21 1.09  53 1.39  77 1.41
  70  0.754  0.846  0.500-  22 1.09  54 1.39  78 1.41
  71  0.846  0.246  0.500-  23 1.09  55 1.39  79 1.41
  72  0.346  0.746  0.500-  24 1.09  56 1.39  80 1.41
  73  0.154  0.754  0.500-  25 1.09  57 1.39  81 1.41
  74  0.654  0.254  0.500-  26 1.09  58 1.39  82 1.41
  75  0.773  0.721  0.500-  67 1.41  85 1.41  78 1.47
  76  0.273  0.221  0.500-  68 1.41  86 1.41  77 1.47
  77  0.227  0.279  0.500-  69 1.41  83 1.41  76 1.47
  78  0.727  0.779  0.500-  70 1.41  84 1.41  75 1.47
  79  0.779  0.273  0.500-  71 1.41  89 1.41  82 1.47
  80  0.279  0.773  0.500-  72 1.41  90 1.41  81 1.47
  81  0.221  0.727  0.500-  73 1.41  87 1.41  80 1.47
  82  0.721  0.227  0.500-  74 1.41  88 1.41  79 1.47
  83  0.156  0.269  0.500-  27 1.09  43 1.39  77 1.41
  84  0.656  0.769  0.500-  28 1.09  44 1.39  78 1.41
  85  0.844  0.731  0.500-  29 1.09  45 1.39  75 1.41
  86  0.344  0.231  0.500-  30 1.09  46 1.39  76 1.41
  87  0.231  0.656  0.500-  31 1.09  47 1.39  81 1.41
  88  0.731  0.156  0.500-  32 1.09  48 1.39  82 1.41
  89  0.769  0.344  0.500-  33 1.09  49 1.39  79 1.41
  90  0.269  0.844  0.500-  34 1.09  50 1.39  80 1.41
  91  0.065  0.105  0.500-  60 1.36  35 1.38   1 2.42
  92  0.565  0.605  0.500-  59 1.36  36 1.38   2 2.42
  93  0.935  0.895  0.500-  62 1.36  37 1.38   1 2.42
  94  0.435  0.395  0.500-  61 1.36  38 1.38   2 2.42
  95  0.395  0.565  0.500-  64 1.36  39 1.38   2 2.42
  96  0.895  0.065  0.500-  63 1.36  40 1.38   1 2.42
  97  0.605  0.435  0.500-  66 1.36  41 1.38   2 2.42
  98  0.105  0.935  0.500-  65 1.36  42 1.38   1 2.42
 
  LATTYP: Found a simple tetragonal cell.
 ALAT       =    19.6176043687
 C/A-ratio  =     0.6594387411
  
  Lattice vectors:
  
 A1 = (  13.8717410730, -13.8717410865,   0.0000000000)
 A2 = (  13.8717410865,  13.8717410730,   0.0000000000)
 A3 = (  -0.0000000000,  -0.0000000000,  12.9366083285)


Analysis of symmetry for initial positions (statically):
=====================================================================
 Subroutine PRICEL returns following result:
 
  LATTYP: Found a simple tetragonal cell.
 ALAT       =    13.8717410798
 C/A-ratio  =     0.9325872112
  
  Lattice vectors:
  
 A1 = (  -0.0000000067, -13.8717410798,   0.0000000000)
 A2 = (  13.8717410798,  -0.0000000067,   0.0000000000)
 A3 = (   0.0000000000,   0.0000000000,  12.9366083285)
 
   2 primitive cells build up your supercell.
 

 Routine SETGRP: Setting up the symmetry group for a 
 simple tetragonal supercell.


 Subroutine GETGRP returns: Found  8 space group operations
 (whereof  8 operations were pure point group operations)
 out of a pool of 16 trial point group operations.


The static configuration has the point symmetry C_4h.


Analysis of symmetry for dynamics (positions and initial velocities):
=====================================================================
 Subroutine PRICEL returns following result:
 
  LATTYP: Found a simple tetragonal cell.
 ALAT       =    13.8717410798
 C/A-ratio  =     0.9325872112
  
  Lattice vectors:
  
 A1 = (  -0.0000000067, -13.8717410798,   0.0000000000)
 A2 = (  13.8717410798,  -0.0000000067,   0.0000000000)
 A3 = (   0.0000000000,   0.0000000000,  12.9366083285)
 
   2 primitive cells build up your supercell.
 

 Routine SETGRP: Setting up the symmetry group for a 
 simple tetragonal supercell.


 Subroutine GETGRP returns: Found  8 space group operations
 (whereof  8 operations were pure point group operations)
 out of a pool of 16 trial point group operations.


The dynamic configuration has the point symmetry C_4h.


Analysis of structural, dynamic, and magnetic symmetry:
=====================================================================
 Subroutine PRICEL returns:
 Original cell was already a primitive cell.
 

 Routine SETGRP: Setting up the symmetry group for a 
 simple tetragonal supercell.


 Subroutine GETGRP returns: Found  8 space group operations
 (whereof  4 operations were pure point group operations)
 out of a pool of 16 trial point group operations.


The overall configuration has the point symmetry C_2h.
 The point group associated with its full space group is C_4h.


 Subroutine INISYM returns: Found  8 space group operations
 (whereof  4 operations are pure point group operations),
 and found     1 'primitive' translations


----------------------------------------------------------------------------------------

                                     Primitive cell                                     

  volume of cell :    4978.6589

  direct lattice vectors                    reciprocal lattice vectors
    13.871741073-13.871741086  0.000000000     0.036044502 -0.036044502 -0.000000000
    13.871741086 13.871741073  0.000000000     0.036044502  0.036044502  0.000000000
    -0.000000000 -0.000000000 12.936608329    -0.000000000 -0.000000000  0.077300014

  length of vectors
    19.617604369 19.617604369 12.936608329     0.050974624  0.050974624  0.077300014

  position of ions in fractional coordinates (direct lattice)
     0.000000000  0.000000000  0.500000000
     0.500000000  0.500000000  0.500000000
     0.017415995  0.206216851  0.500000000
     0.517415995  0.706216851  0.500000000
     0.982584005  0.793783149  0.500000000
     0.482584005  0.293783149  0.500000000
     0.293783149  0.517415995  0.500000000
     0.793783149  0.017415995  0.500000000
     0.706216851  0.482584005  0.500000000
     0.206216851  0.982584005  0.500000000
     0.644765732  0.534994962  0.500000000
     0.144765732  0.034994962  0.500000000
     0.355234268  0.465005038  0.500000000
     0.855234268  0.965005038  0.500000000
     0.965005038  0.144765732  0.500000000
     0.465005038  0.644765732  0.500000000
     0.034994962  0.855234268  0.500000000
     0.534994962  0.355234268  0.500000000
     0.780598798  0.610442483  0.500000000
     0.280598798  0.110442483  0.500000000
     0.219401202  0.389557517  0.500000000
     0.719401202  0.889557517  0.500000000
     0.889557517  0.280598798  0.500000000
     0.389557517  0.780598798  0.500000000
     0.110442483  0.719401202  0.500000000
     0.610442483  0.219401202  0.500000000
     0.121771679  0.313181027  0.500000000
     0.621771679  0.813181027  0.500000000
     0.878228321  0.686818973  0.500000000
     0.378228321  0.186818973  0.500000000
     0.186818973  0.621771679  0.500000000
     0.686818973  0.121771679  0.500000000
     0.813181027  0.378228321  0.500000000
     0.313181027  0.878228321  0.500000000
     0.063363646  0.175633678  0.500000000
     0.563363646  0.675633678  0.500000000
     0.936636354  0.824366322  0.500000000
     0.436636354  0.324366322  0.500000000
     0.324366322  0.563363646  0.500000000
     0.824366322  0.063363646  0.500000000
     0.675633678  0.436636354  0.500000000
     0.175633678  0.936636354  0.500000000
     0.129815451  0.202969293  0.500000000
     0.629815451  0.702969293  0.500000000
     0.870184549  0.797030707  0.500000000
     0.370184549  0.297030707  0.500000000
     0.297030707  0.629815451  0.500000000
     0.797030707  0.129815451  0.500000000
     0.702969293  0.370184549  0.500000000
     0.202969293  0.870184549  0.500000000
     0.675358850  0.644752653  0.500000000
     0.175358850  0.144752653  0.500000000
     0.324641150  0.355247347  0.500000000
     0.824641150  0.855247347  0.500000000
     0.855247347  0.175358850  0.500000000
     0.355247347  0.675358850  0.500000000
     0.144752653  0.824641150  0.500000000
     0.644752653  0.324641150  0.500000000
     0.631883626  0.587615460  0.500000000
     0.131883626  0.087615460  0.500000000
     0.368116374  0.412384540  0.500000000
     0.868116374  0.912384540  0.500000000
     0.912384540  0.131883626  0.500000000
     0.412384540  0.631883626  0.500000000
     0.087615460  0.868116374  0.500000000
     0.587615460  0.368116374  0.500000000
     0.745747200  0.653898258  0.500000000
     0.245747200  0.153898258  0.500000000
     0.254252800  0.346101742  0.500000000
     0.754252800  0.846101742  0.500000000
     0.846101742  0.245747200  0.500000000
     0.346101742  0.745747200  0.500000000
     0.153898258  0.754252800  0.500000000
     0.653898258  0.254252800  0.500000000
     0.773085460  0.720500840  0.500000000
     0.273085460  0.220500840  0.500000000
     0.226914540  0.279499160  0.500000000
     0.726914540  0.779499160  0.500000000
     0.779499160  0.273085460  0.500000000
     0.279499160  0.773085460  0.500000000
     0.220500840  0.726914540  0.500000000
     0.720500840  0.226914540  0.500000000
     0.155670149  0.268980117  0.500000000
     0.655670149  0.768980117  0.500000000
     0.844329851  0.731019883  0.500000000
     0.344329851  0.231019883  0.500000000
     0.231019883  0.655670149  0.500000000
     0.731019883  0.155670149  0.500000000
     0.768980117  0.344329851  0.500000000
     0.268980117  0.844329851  0.500000000
     0.064671646  0.105084212  0.500000000
     0.564671646  0.605084212  0.500000000
     0.935328354  0.894915788  0.500000000
     0.435328354  0.394915788  0.500000000
     0.394915788  0.564671646  0.500000000
     0.894915788  0.064671646  0.500000000
     0.605084212  0.435328354  0.500000000
     0.105084212  0.935328354  0.500000000

  ion indices of the primitive-cell ions
   primitive index   ion index
                 1           1
                 2           2
                 3           3
                 4           4
                 5           5
                 6           6
                 7           7
                 8           8
                 9           9
                10          10
                11          11
                12          12
                13          13
                14          14
                15          15
                16          16
                17          17
                18          18
                19          19
                20          20
                21          21
                22          22
                23          23
                24          24
                25          25
                26          26
                27          27
                28          28
                29          29
                30          30
                31          31
                32          32
                33          33
                34          34
                35          35
                36          36
                37          37
                38          38
                39          39
                40          40
                41          41
                42          42
                43          43
                44          44
                45          45
                46          46
                47          47
                48          48
                49          49
                50          50
                51          51
                52          52
                53          53
                54          54
                55          55
                56          56
                57          57
                58          58
                59          59
                60          60
                61          61
                62          62
                63          63
                64          64
                65          65
                66          66
                67          67
                68          68
                69          69
                70          70
                71          71
                72          72
                73          73
                74          74
                75          75
                76          76
                77          77
                78          78
                79          79
                80          80
                81          81
                82          82
                83          83
                84          84
                85          85
                86          86
                87          87
                88          88
                89          89
                90          90
                91          91
                92          92
                93          93
                94          94
                95          95
                96          96
                97          97
                98          98

----------------------------------------------------------------------------------------

 
 
 KPOINTS: K-Path Generated by VASPKIT.            

Interpolating k-points between supplied coordinates.

 Line segments in fractional coordinates (reciprocal lattice):
    0.500000  0.500000  0.000000  ...  0.500000  0.000000  0.000000
    0.500000  0.000000  0.000000  ...  1.000000  0.000000  0.000000
    1.000000  0.000000  0.000000  ...  0.500000  0.500000  0.000000
    0.500000  0.500000  0.000000  ...  1.000000  1.000000  0.000000
    1.000000  1.000000  0.000000  ...  1.000000  0.500000  0.000000
    1.000000  0.500000  0.000000  ...  0.500000  0.500000  0.000000

 Generated    15 points on each line segment, for a total of     90 k-points:

 Following reciprocal coordinates:
            Coordinates               Weight
  0.500000  0.500000  0.000000      0.011111
  0.500000  0.464286  0.000000      0.011111
  0.500000  0.428571  0.000000      0.011111
  0.500000  0.392857  0.000000      0.011111
  0.500000  0.357143  0.000000      0.011111
  0.500000  0.321429  0.000000      0.011111
  0.500000  0.285714  0.000000      0.011111
  0.500000  0.250000  0.000000      0.011111
  0.500000  0.214286  0.000000      0.011111
  0.500000  0.178571  0.000000      0.011111
  0.500000  0.142857  0.000000      0.011111
  0.500000  0.107143  0.000000      0.011111
  0.500000  0.071429  0.000000      0.011111
  0.500000  0.035714  0.000000      0.011111
  0.500000  0.000000  0.000000      0.011111
  0.500000  0.000000  0.000000      0.011111
  0.535714  0.000000  0.000000      0.011111
  0.571429  0.000000  0.000000      0.011111
  0.607143  0.000000  0.000000      0.011111
  0.642857  0.000000  0.000000      0.011111
  0.678571  0.000000  0.000000      0.011111
  0.714286  0.000000  0.000000      0.011111
  0.750000  0.000000  0.000000      0.011111
  0.785714  0.000000  0.000000      0.011111
  0.821429  0.000000  0.000000      0.011111
  0.857143  0.000000  0.000000      0.011111
  0.892857  0.000000  0.000000      0.011111
  0.928571  0.000000  0.000000      0.011111
  0.964286  0.000000  0.000000      0.011111
  1.000000  0.000000  0.000000      0.011111
  1.000000  0.000000  0.000000      0.011111
  0.964286  0.035714  0.000000      0.011111
  0.928571  0.071429  0.000000      0.011111
  0.892857  0.107143  0.000000      0.011111
  0.857143  0.142857  0.000000      0.011111
  0.821429  0.178571  0.000000      0.011111
  0.785714  0.214286  0.000000      0.011111
  0.750000  0.250000  0.000000      0.011111
  0.714286  0.285714  0.000000      0.011111
  0.678571  0.321429  0.000000      0.011111
  0.642857  0.357143  0.000000      0.011111
  0.607143  0.392857  0.000000      0.011111
  0.571429  0.428571  0.000000      0.011111
  0.535714  0.464286  0.000000      0.011111
  0.500000  0.500000  0.000000      0.011111
  0.500000  0.500000  0.000000      0.011111
  0.535714  0.535714  0.000000      0.011111
  0.571429  0.571429  0.000000      0.011111
  0.607143  0.607143  0.000000      0.011111
  0.642857  0.642857  0.000000      0.011111
  0.678571  0.678571  0.000000      0.011111
  0.714286  0.714286  0.000000      0.011111
  0.750000  0.750000  0.000000      0.011111
  0.785714  0.785714  0.000000      0.011111
  0.821429  0.821429  0.000000      0.011111
  0.857143  0.857143  0.000000      0.011111
  0.892857  0.892857  0.000000      0.011111
  0.928571  0.928571  0.000000      0.011111
  0.964286  0.964286  0.000000      0.011111
  1.000000  1.000000  0.000000      0.011111
  1.000000  1.000000  0.000000      0.011111
  1.000000  0.964286  0.000000      0.011111
  1.000000  0.928571  0.000000      0.011111
  1.000000  0.892857  0.000000      0.011111
  1.000000  0.857143  0.000000      0.011111
  1.000000  0.821429  0.000000      0.011111
  1.000000  0.785714  0.000000      0.011111
  1.000000  0.750000  0.000000      0.011111
  1.000000  0.714286  0.000000      0.011111
  1.000000  0.678571  0.000000      0.011111
  1.000000  0.642857  0.000000      0.011111
  1.000000  0.607143  0.000000      0.011111
  1.000000  0.571429  0.000000      0.011111
  1.000000  0.535714  0.000000      0.011111
  1.000000  0.500000  0.000000      0.011111
  1.000000  0.500000  0.000000      0.011111
  0.964286  0.500000  0.000000      0.011111
  0.928571  0.500000  0.000000      0.011111
  0.892857  0.500000  0.000000      0.011111
  0.857143  0.500000  0.000000      0.011111
  0.821429  0.500000  0.000000      0.011111
  0.785714  0.500000  0.000000      0.011111
  0.750000  0.500000  0.000000      0.011111
  0.714286  0.500000  0.000000      0.011111
  0.678571  0.500000  0.000000      0.011111
  0.642857  0.500000  0.000000      0.011111
  0.607143  0.500000  0.000000      0.011111
  0.571429  0.500000  0.000000      0.011111
  0.535714  0.500000  0.000000      0.011111
  0.500000  0.500000  0.000000      0.011111

 Following cartesian coordinates:
            Coordinates               Weight
  0.036045 -0.000000  0.000000      0.011111
  0.034757 -0.001287  0.000000      0.011111
  0.033470 -0.002575  0.000000      0.011111
  0.032183 -0.003862  0.000000      0.011111
  0.030895 -0.005149  0.000000      0.011111
  0.029608 -0.006437  0.000000      0.011111
  0.028321 -0.007724  0.000000      0.011111
  0.027033 -0.009011  0.000000      0.011111
  0.025746 -0.010298  0.000000      0.011111
  0.024459 -0.011586  0.000000      0.011111
  0.023171 -0.012873  0.000000      0.011111
  0.021884 -0.014160  0.000000      0.011111
  0.020597 -0.015448  0.000000      0.011111
  0.019310 -0.016735  0.000000      0.011111
  0.018022 -0.018022 -0.000000      0.011111
  0.018022 -0.018022 -0.000000      0.011111
  0.019310 -0.019310 -0.000000      0.011111
  0.020597 -0.020597 -0.000000      0.011111
  0.021884 -0.021884 -0.000000      0.011111
  0.023171 -0.023171 -0.000000      0.011111
  0.024459 -0.024459 -0.000000      0.011111
  0.025746 -0.025746 -0.000000      0.011111
  0.027033 -0.027033 -0.000000      0.011111
  0.028321 -0.028321 -0.000000      0.011111
  0.029608 -0.029608 -0.000000      0.011111
  0.030895 -0.030895 -0.000000      0.011111
  0.032183 -0.032183 -0.000000      0.011111
  0.033470 -0.033470 -0.000000      0.011111
  0.034757 -0.034757 -0.000000      0.011111
  0.036045 -0.036045 -0.000000      0.011111
  0.036045 -0.036045 -0.000000      0.011111
  0.036045 -0.033470  0.000000      0.011111
  0.036045 -0.030895  0.000000      0.011111
  0.036045 -0.028321  0.000000      0.011111
  0.036045 -0.025746  0.000000      0.011111
  0.036045 -0.023171  0.000000      0.011111
  0.036045 -0.020597  0.000000      0.011111
  0.036045 -0.018022  0.000000      0.011111
  0.036045 -0.015448  0.000000      0.011111
  0.036045 -0.012873  0.000000      0.011111
  0.036045 -0.010298  0.000000      0.011111
  0.036045 -0.007724  0.000000      0.011111
  0.036045 -0.005149  0.000000      0.011111
  0.036045 -0.002575  0.000000      0.011111
  0.036045 -0.000000  0.000000      0.011111
  0.036045 -0.000000  0.000000      0.011111
  0.038619 -0.000000  0.000000      0.011111
  0.041194 -0.000000  0.000000      0.011111
  0.043768 -0.000000  0.000000      0.011111
  0.046343 -0.000000  0.000000      0.011111
  0.048918 -0.000000  0.000000      0.011111
  0.051492 -0.000000  0.000000      0.011111
  0.054067 -0.000000  0.000000      0.011111
  0.056641 -0.000000  0.000000      0.011111
  0.059216 -0.000000  0.000000      0.011111
  0.061791 -0.000000  0.000000      0.011111
  0.064365 -0.000000  0.000000      0.011111
  0.066940 -0.000000  0.000000      0.011111
  0.069514 -0.000000  0.000000      0.011111
  0.072089 -0.000000  0.000000      0.011111
  0.072089 -0.000000  0.000000      0.011111
  0.070802 -0.001287  0.000000      0.011111
  0.069514 -0.002575  0.000000      0.011111
  0.068227 -0.003862  0.000000      0.011111
  0.066940 -0.005149  0.000000      0.011111
  0.065652 -0.006437  0.000000      0.011111
  0.064365 -0.007724  0.000000      0.011111
  0.063078 -0.009011  0.000000      0.011111
  0.061791 -0.010298  0.000000      0.011111
  0.060503 -0.011586  0.000000      0.011111
  0.059216 -0.012873  0.000000      0.011111
  0.057929 -0.014160  0.000000      0.011111
  0.056641 -0.015448  0.000000      0.011111
  0.055354 -0.016735  0.000000      0.011111
  0.054067 -0.018022  0.000000      0.011111
  0.054067 -0.018022  0.000000      0.011111
  0.052779 -0.016735  0.000000      0.011111
  0.051492 -0.015448  0.000000      0.011111
  0.050205 -0.014160  0.000000      0.011111
  0.048918 -0.012873  0.000000      0.011111
  0.047630 -0.011586  0.000000      0.011111
  0.046343 -0.010298  0.000000      0.011111
  0.045056 -0.009011  0.000000      0.011111
  0.043768 -0.007724  0.000000      0.011111
  0.042481 -0.006437  0.000000      0.011111
  0.041194 -0.005149  0.000000      0.011111
  0.039906 -0.003862  0.000000      0.011111
  0.038619 -0.002575  0.000000      0.011111
  0.037332 -0.001287  0.000000      0.011111
  0.036045 -0.000000  0.000000      0.011111
 


--------------------------------------------------------------------------------------------------------




 Dimension of arrays:
   k-points           NKPTS =     90   k-points in BZ     NKDIM =     90   number of bands    NBANDS=    212
   number of dos      NEDOS =    301   number of ions     NIONS =     98
   non local maximal  LDIM  =      6   non local SUM 2l+1 LMDIM =     18
   total plane-waves  NPLWV = 839808
   max r-space proj   IRMAX =   1638   max aug-charges    IRDMAX=   6068
   dimension x,y,z NGX =   108 NGY =  108 NGZ =   72
   dimension x,y,z NGXF=   216 NGYF=  216 NGZF=  144
   support grid    NGXF=   216 NGYF=  216 NGZF=  144
   ions per type =               2  32  56   8
   NGX,Y,Z   is equivalent  to a cutoff of   9.15,  9.15,  9.25 a.u.
   NGXF,Y,Z  is equivalent  to a cutoff of  18.30, 18.30, 18.51 a.u.

 SYSTEM =  unknown system                          
 POSCAR =  Cr2 H32 C56 N8                          

 Startparameter for this run:
   NWRITE =      2    write-flag & timer
   PREC   = normal    normal or accurate (medium, high low for compatibility)
   ISTART =      0    job   : 0-new  1-cont  2-samecut
   ICHARG =     11    charge: 1-file 2-atom 10-const
   ISPIN  =      2    spin polarized calculation?
   LNONCOLLINEAR =      F non collinear calculations
   LSORBIT =      F    spin-orbit coupling
   INIWAV =      1    electr: 0-lowe 1-rand  2-diag
   LASPH  =      F    aspherical Exc in radial PAW
 Electronic Relaxation 1
   ENCUT  =  500.0 eV  36.75 Ry    6.06 a.u.  35.77 35.77 23.59*2*pi/ulx,y,z
   ENINI  =  500.0     initial cutoff
   ENAUG  =  644.9 eV  augmentation charge cutoff
   NELM   =    200;   NELMIN=  2; NELMDL=  0     # of ELM steps 
   EDIFF  = 0.1E-04   stopping-criterion for ELM
   LREAL  =      T    real-space projection
   NLSPLINE    = F    spline interpolate recip. space projectors
   LCOMPAT=      F    compatible to vasp.4.4
   GGA_COMPAT  = T    GGA compatible to vasp.4.4-vasp.4.6
   LMAXPAW     = -100 max onsite density
   LMAXMIX     =    4 max onsite mixed and CHGCAR
   VOSKOWN=      0    Vosko Wilk Nusair interpolation
   ROPT   =   -0.00050  -0.00050  -0.00050  -0.00050
 Ionic relaxation
   EDIFFG = -.1E-01   stopping-criterion for IOM
   NSW    =      0    number of steps for IOM
   NBLOCK =      1;   KBLOCK =      1    inner block; outer block 
   IBRION =     -1    ionic relax: 0-MD 1-quasi-New 2-CG
   NFREE  =      0    steps in history (QN), initial steepest desc. (CG)
   ISIF   =      2    stress and relaxation
   IWAVPR =     10    prediction:  0-non 1-charg 2-wave 3-comb
   ISYM   =      2    0-nonsym 1-usesym 2-fastsym
   LCORR  =      T    Harris-Foulkes like correction to forces

   POTIM  = 0.5000    time-step for ionic-motion
   TEIN   =    0.0    initial temperature
   TEBEG  =    0.0;   TEEND  =   0.0 temperature during run
   SMASS  =  -3.00    Nose mass-parameter (am)
   estimated Nose-frequenzy (Omega)   =  0.10E-29 period in steps = 0.13E+47 mass=  -0.879E-26a.u.
   SCALEE = 1.0000    scale energy and forces
   NPACO  =    256;   APACO  = 10.0  distance and # of slots for P.C.
   PSTRESS=    0.0 pullay stress

  Mass of Ions in am
   POMASS =  52.00  1.00 12.01 14.00
  Ionic Valenz
   ZVAL   =  12.00  1.00  4.00  5.00
  Atomic Wigner-Seitz radii
   RWIGS  =  -1.00 -1.00 -1.00 -1.00
  virtual crystal weights 
   VCA    =   1.00  1.00  1.00  1.00
   NELECT =     320.0000    total number of electrons
   NUPDOWN=      -1.0000    fix difference up-down

 DOS related values:
   EMIN   =  10.00;   EMAX   =-10.00  energy-range for DOS
   EFERMI =   0.00
   ISMEAR =     1;   SIGMA  =   0.20  broadening in eV -4-tet -1-fermi 0-gaus

 Electronic relaxation 2 (details)
   IALGO  =     68    algorithm
   LDIAG  =      T    sub-space diagonalisation (order eigenvalues)
   LSUBROT=      F    optimize rotation matrix (better conditioning)
   TURBO    =      0    0=normal 1=particle mesh
   IRESTART =      0    0=no restart 2=restart with 2 vectors
   NREBOOT  =      0    no. of reboots
   NMIN     =      0    reboot dimension
   EREF     =   0.00    reference energy to select bands
   IMIX   =      4    mixing-type and parameters
     AMIX     =   0.20;   BMIX     =  0.00
     AMIX_MAG =   0.80;   BMIX_MAG =  0.00
     AMIN     =   0.10
     WC   =   100.;   INIMIX=   1;  MIXPRE=   1;  MAXMIX= -45

 Intra band minimization:
   WEIMIN = 0.0000     energy-eigenvalue tresh-hold
   EBREAK =  0.12E-07  absolut break condition
   DEPER  =   0.30     relativ break condition  

   TIME   =   0.40     timestep for ELM

  volume/ion in A,a.u.               =      50.80       342.83
  Fermi-wavevector in a.u.,A,eV,Ry     =   0.655774  1.239233  5.851039  0.430039
  Thomas-Fermi vector in A             =   1.726756
 
 Write flags
   LWAVE        =      F    write WAVECAR
   LDOWNSAMPLE  =      F    k-point downsampling of WAVECAR
   LCHARG       =      F    write CHGCAR
   LVTOT        =      T    write LOCPOT, total local potential
   LVHAR        =      F    write LOCPOT, Hartree potential only
   LELF         =      F    write electronic localiz. function (ELF)
   LORBIT       =     11    0 simple, 1 ext, 2 COOP (PROOUT), +10 PAW based schemes


 Dipole corrections
   LMONO  =      F    monopole corrections only (constant potential shift)
   LDIPOL =      F    correct potential (dipole corrections)
   IDIPOL =      0    1-x, 2-y, 3-z, 4-all directions 
   EPSILON=  1.0000000 bulk dielectric constant

 LDA+U is selected, type is set to LDAUTYPE =  2
   angular momentum for each species LDAUL =     2   -1   -1   -1
   U (eV)           for each species LDAUU =   3.0  0.0  0.0  0.0
   J (eV)           for each species LDAUJ =   1.0  0.0  0.0  0.0
 Exchange correlation treatment:
   GGA     =    --    GGA type
   LEXCH   =     8    internal setting for exchange type
   LIBXC   =     F    Libxc                    
   VOSKOWN =     0    Vosko Wilk Nusair interpolation
   LHFCALC =     F    Hartree Fock is set to
   LHFONE  =     F    Hartree Fock one center treatment
   AEXX    =    0.0000 exact exchange contribution

 Linear response parameters
   LEPSILON=     F    determine dielectric tensor
   LRPA    =     F    only Hartree local field effects (RPA)
   LNABLA  =     F    use nabla operator in PAW spheres
   LVEL    =     F    velocity operator in full k-point grid
   CSHIFT  =0.1000    complex shift for real part using Kramers Kronig
   OMEGAMAX=  -1.0    maximum frequency
   DEG_THRESHOLD= 0.2000000E-02 threshold for treating states as degnerate
   RTIME   =   -0.100 relaxation time in fs
  (WPLASMAI=    0.000 imaginary part of plasma frequency in eV, 0.658/RTIME)
   DFIELD  = 0.0000000 0.0000000 0.0000000 field for delta impulse in time
 
  Optional k-point grid parameters
   LKPOINTS_OPT  =     F    use optional k-point grid
   KPOINTS_OPT_MODE=     1    mode for optional k-point grid
 
 Orbital magnetization related:
   ORBITALMAG=     F  switch on orbital magnetization
   LCHIMAG   =     F  perturbation theory with respect to B field
   DQ        =  0.001000  dq finite difference perturbation B field
   LLRAUG    =     F  two centre corrections for induced B field



--------------------------------------------------------------------------------------------------------


 Static calculation
 charge density and potential remain constant during run
 spin polarized calculation
 RMM-DIIS sequential band-by-band and
  variant of blocked Davidson during initial phase
 perform sub-space diagonalisation
    before iterative eigenvector-optimisation
 no mixing
 using additional bands           52
 real space projection scheme for non local part
 use partial core corrections
 calculate Harris-corrections to forces 
   (improved forces if not selfconsistent)
 use gradient corrections 
 WARNING: stress and forces are not correct
  (second derivative of E(xc) not defined)
 use of overlap-Matrix (Vanderbilt PP)
 Methfessel and Paxton  Order N= 1 SIGMA  =   0.20


--------------------------------------------------------------------------------------------------------


  energy-cutoff  :      500.00
  volume of cell :     4978.66
      direct lattice vectors                 reciprocal lattice vectors
    13.871741073-13.871741086  0.000000000     0.036044502 -0.036044502 -0.000000000
    13.871741086 13.871741073  0.000000000     0.036044502  0.036044502  0.000000000
    -0.000000000 -0.000000000 12.936608329    -0.000000000 -0.000000000  0.077300014

  length of vectors
    19.617604369 19.617604369 12.936608329     0.050974624  0.050974624  0.077300014


 
 k-points in units of 2pi/SCALE and weight: K-Path Generated by VASPKIT.            
   0.03604450 -0.00000000  0.00000000       0.011
   0.03475720 -0.00128730  0.00000000       0.011
   0.03346989 -0.00257461  0.00000000       0.011
   0.03218259 -0.00386191  0.00000000       0.011
   0.03089529 -0.00514921  0.00000000       0.011
   0.02960798 -0.00643652  0.00000000       0.011
   0.02832068 -0.00772382  0.00000000       0.011
   0.02703338 -0.00901113  0.00000000       0.011
   0.02574607 -0.01029843  0.00000000       0.011
   0.02445877 -0.01158573  0.00000000       0.011
   0.02317147 -0.01287304  0.00000000       0.011
   0.02188416 -0.01416034  0.00000000       0.011
   0.02059686 -0.01544764  0.00000000       0.011
   0.01930955 -0.01673495  0.00000000       0.011
   0.01802225 -0.01802225 -0.00000000       0.011
   0.01802225 -0.01802225 -0.00000000       0.011
   0.01930955 -0.01930955 -0.00000000       0.011
   0.02059686 -0.02059686 -0.00000000       0.011
   0.02188416 -0.02188416 -0.00000000       0.011
   0.02317147 -0.02317147 -0.00000000       0.011
   0.02445877 -0.02445877 -0.00000000       0.011
   0.02574607 -0.02574607 -0.00000000       0.011
   0.02703338 -0.02703338 -0.00000000       0.011
   0.02832068 -0.02832068 -0.00000000       0.011
   0.02960798 -0.02960798 -0.00000000       0.011
   0.03089529 -0.03089529 -0.00000000       0.011
   0.03218259 -0.03218259 -0.00000000       0.011
   0.03346989 -0.03346989 -0.00000000       0.011
   0.03475720 -0.03475720 -0.00000000       0.011
   0.03604450 -0.03604450 -0.00000000       0.011
   0.03604450 -0.03604450 -0.00000000       0.011
   0.03604450 -0.03346989  0.00000000       0.011
   0.03604450 -0.03089529  0.00000000       0.011
   0.03604450 -0.02832068  0.00000000       0.011
   0.03604450 -0.02574607  0.00000000       0.011
   0.03604450 -0.02317147  0.00000000       0.011
   0.03604450 -0.02059686  0.00000000       0.011
   0.03604450 -0.01802225  0.00000000       0.011
   0.03604450 -0.01544764  0.00000000       0.011
   0.03604450 -0.01287304  0.00000000       0.011
   0.03604450 -0.01029843  0.00000000       0.011
   0.03604450 -0.00772382  0.00000000       0.011
   0.03604450 -0.00514921  0.00000000       0.011
   0.03604450 -0.00257461  0.00000000       0.011
   0.03604450 -0.00000000  0.00000000       0.011
   0.03604450 -0.00000000  0.00000000       0.011
   0.03861911 -0.00000000  0.00000000       0.011
   0.04119372 -0.00000000  0.00000000       0.011
   0.04376832 -0.00000000  0.00000000       0.011
   0.04634293 -0.00000000  0.00000000       0.011
   0.04891754 -0.00000000  0.00000000       0.011
   0.05149215 -0.00000000  0.00000000       0.011
   0.05406675 -0.00000000  0.00000000       0.011
   0.05664136 -0.00000000  0.00000000       0.011
   0.05921597 -0.00000000  0.00000000       0.011
   0.06179057 -0.00000000  0.00000000       0.011
   0.06436518 -0.00000000  0.00000000       0.011
   0.06693979 -0.00000000  0.00000000       0.011
   0.06951440 -0.00000000  0.00000000       0.011
   0.07208900 -0.00000000  0.00000000       0.011
   0.07208900 -0.00000000  0.00000000       0.011
   0.07080170 -0.00128730  0.00000000       0.011
   0.06951440 -0.00257461  0.00000000       0.011
   0.06822709 -0.00386191  0.00000000       0.011
   0.06693979 -0.00514921  0.00000000       0.011
   0.06565249 -0.00643652  0.00000000       0.011
   0.06436518 -0.00772382  0.00000000       0.011
   0.06307788 -0.00901113  0.00000000       0.011
   0.06179057 -0.01029843  0.00000000       0.011
   0.06050327 -0.01158573  0.00000000       0.011
   0.05921597 -0.01287304  0.00000000       0.011
   0.05792866 -0.01416034  0.00000000       0.011
   0.05664136 -0.01544764  0.00000000       0.011
   0.05535406 -0.01673495  0.00000000       0.011
   0.05406675 -0.01802225  0.00000000       0.011
   0.05406675 -0.01802225  0.00000000       0.011
   0.05277945 -0.01673495  0.00000000       0.011
   0.05149215 -0.01544764  0.00000000       0.011
   0.05020484 -0.01416034  0.00000000       0.011
   0.04891754 -0.01287304  0.00000000       0.011
   0.04763023 -0.01158573  0.00000000       0.011
   0.04634293 -0.01029843  0.00000000       0.011
   0.04505563 -0.00901113  0.00000000       0.011
   0.04376832 -0.00772382  0.00000000       0.011
   0.04248102 -0.00643652  0.00000000       0.011
   0.04119372 -0.00514921  0.00000000       0.011
   0.03990641 -0.00386191  0.00000000       0.011
   0.03861911 -0.00257461  0.00000000       0.011
   0.03733181 -0.00128730  0.00000000       0.011
   0.03604450 -0.00000000  0.00000000       0.011
 
 k-points in reciprocal lattice and weights: K-Path Generated by VASPKIT.            
   0.50000000  0.50000000  0.00000000       0.011
   0.50000000  0.46428571  0.00000000       0.011
   0.50000000  0.42857143  0.00000000       0.011
   0.50000000  0.39285714  0.00000000       0.011
   0.50000000  0.35714286  0.00000000       0.011
   0.50000000  0.32142857  0.00000000       0.011
   0.50000000  0.28571429  0.00000000       0.011
   0.50000000  0.25000000  0.00000000       0.011
   0.50000000  0.21428571  0.00000000       0.011
   0.50000000  0.17857143  0.00000000       0.011
   0.50000000  0.14285714  0.00000000       0.011
   0.50000000  0.10714286  0.00000000       0.011
   0.50000000  0.07142857  0.00000000       0.011
   0.50000000  0.03571429  0.00000000       0.011
   0.50000000  0.00000000  0.00000000       0.011
   0.50000000  0.00000000  0.00000000       0.011
   0.53571429  0.00000000  0.00000000       0.011
   0.57142857  0.00000000  0.00000000       0.011
   0.60714286  0.00000000  0.00000000       0.011
   0.64285714  0.00000000  0.00000000       0.011
   0.67857143  0.00000000  0.00000000       0.011
   0.71428571  0.00000000  0.00000000       0.011
   0.75000000  0.00000000  0.00000000       0.011
   0.78571429  0.00000000  0.00000000       0.011
   0.82142857  0.00000000  0.00000000       0.011
   0.85714286  0.00000000  0.00000000       0.011
   0.89285714  0.00000000  0.00000000       0.011
   0.92857143  0.00000000  0.00000000       0.011
   0.96428571  0.00000000  0.00000000       0.011
   1.00000000  0.00000000  0.00000000       0.011
   1.00000000  0.00000000  0.00000000       0.011
   0.96428571  0.03571429  0.00000000       0.011
   0.92857143  0.07142857  0.00000000       0.011
   0.89285714  0.10714286  0.00000000       0.011
   0.85714286  0.14285714  0.00000000       0.011
   0.82142857  0.17857143  0.00000000       0.011
   0.78571429  0.21428571  0.00000000       0.011
   0.75000000  0.25000000  0.00000000       0.011
   0.71428571  0.28571429  0.00000000       0.011
   0.67857143  0.32142857  0.00000000       0.011
   0.64285714  0.35714286  0.00000000       0.011
   0.60714286  0.39285714  0.00000000       0.011
   0.57142857  0.42857143  0.00000000       0.011
   0.53571429  0.46428571  0.00000000       0.011
   0.50000000  0.50000000  0.00000000       0.011
   0.50000000  0.50000000  0.00000000       0.011
   0.53571429  0.53571429  0.00000000       0.011
   0.57142857  0.57142857  0.00000000       0.011
   0.60714286  0.60714286  0.00000000       0.011
   0.64285714  0.64285714  0.00000000       0.011
   0.67857143  0.67857143  0.00000000       0.011
   0.71428571  0.71428571  0.00000000       0.011
   0.75000000  0.75000000  0.00000000       0.011
   0.78571429  0.78571429  0.00000000       0.011
   0.82142857  0.82142857  0.00000000       0.011
   0.85714286  0.85714286  0.00000000       0.011
   0.89285714  0.89285714  0.00000000       0.011
   0.92857143  0.92857143  0.00000000       0.011
   0.96428571  0.96428571  0.00000000       0.011
   1.00000000  1.00000000  0.00000000       0.011
   1.00000000  1.00000000  0.00000000       0.011
   1.00000000  0.96428571  0.00000000       0.011
   1.00000000  0.92857143  0.00000000       0.011
   1.00000000  0.89285714  0.00000000       0.011
   1.00000000  0.85714286  0.00000000       0.011
   1.00000000  0.82142857  0.00000000       0.011
   1.00000000  0.78571429  0.00000000       0.011
   1.00000000  0.75000000  0.00000000       0.011
   1.00000000  0.71428571  0.00000000       0.011
   1.00000000  0.67857143  0.00000000       0.011
   1.00000000  0.64285714  0.00000000       0.011
   1.00000000  0.60714286  0.00000000       0.011
   1.00000000  0.57142857  0.00000000       0.011
   1.00000000  0.53571429  0.00000000       0.011
   1.00000000  0.50000000  0.00000000       0.011
   1.00000000  0.50000000  0.00000000       0.011
   0.96428571  0.50000000  0.00000000       0.011
   0.92857143  0.50000000  0.00000000       0.011
   0.89285714  0.50000000  0.00000000       0.011
   0.85714286  0.50000000  0.00000000       0.011
   0.82142857  0.50000000  0.00000000       0.011
   0.78571429  0.50000000  0.00000000       0.011
   0.75000000  0.50000000  0.00000000       0.011
   0.71428571  0.50000000  0.00000000       0.011
   0.67857143  0.50000000  0.00000000       0.011
   0.64285714  0.50000000  0.00000000       0.011
   0.60714286  0.50000000  0.00000000       0.011
   0.57142857  0.50000000  0.00000000       0.011
   0.53571429  0.50000000  0.00000000       0.011
   0.50000000  0.50000000  0.00000000       0.011
 
 position of ions in fractional coordinates (direct lattice) 
   0.00000000  0.00000000  0.50000000
   0.50000000  0.50000000  0.50000000
   0.01741599  0.20621685  0.50000000
   0.51741599  0.70621685  0.50000000
   0.98258401  0.79378315  0.50000000
   0.48258401  0.29378315  0.50000000
   0.29378315  0.51741599  0.50000000
   0.79378315  0.01741599  0.50000000
   0.70621685  0.48258401  0.50000000
   0.20621685  0.98258401  0.50000000
   0.64476573  0.53499496  0.50000000
   0.14476573  0.03499496  0.50000000
   0.35523427  0.46500504  0.50000000
   0.85523427  0.96500504  0.50000000
   0.96500504  0.14476573  0.50000000
   0.46500504  0.64476573  0.50000000
   0.03499496  0.85523427  0.50000000
   0.53499496  0.35523427  0.50000000
   0.78059880  0.61044248  0.50000000
   0.28059880  0.11044248  0.50000000
   0.21940120  0.38955752  0.50000000
   0.71940120  0.88955752  0.50000000
   0.88955752  0.28059880  0.50000000
   0.38955752  0.78059880  0.50000000
   0.11044248  0.71940120  0.50000000
   0.61044248  0.21940120  0.50000000
   0.12177168  0.31318103  0.50000000
   0.62177168  0.81318103  0.50000000
   0.87822832  0.68681897  0.50000000
   0.37822832  0.18681897  0.50000000
   0.18681897  0.62177168  0.50000000
   0.68681897  0.12177168  0.50000000
   0.81318103  0.37822832  0.50000000
   0.31318103  0.87822832  0.50000000
   0.06336365  0.17563368  0.50000000
   0.56336365  0.67563368  0.50000000
   0.93663635  0.82436632  0.50000000
   0.43663635  0.32436632  0.50000000
   0.32436632  0.56336365  0.50000000
   0.82436632  0.06336365  0.50000000
   0.67563368  0.43663635  0.50000000
   0.17563368  0.93663635  0.50000000
   0.12981545  0.20296929  0.50000000
   0.62981545  0.70296929  0.50000000
   0.87018455  0.79703071  0.50000000
   0.37018455  0.29703071  0.50000000
   0.29703071  0.62981545  0.50000000
   0.79703071  0.12981545  0.50000000
   0.70296929  0.37018455  0.50000000
   0.20296929  0.87018455  0.50000000
   0.67535885  0.64475265  0.50000000
   0.17535885  0.14475265  0.50000000
   0.32464115  0.35524735  0.50000000
   0.82464115  0.85524735  0.50000000
   0.85524735  0.17535885  0.50000000
   0.35524735  0.67535885  0.50000000
   0.14475265  0.82464115  0.50000000
   0.64475265  0.32464115  0.50000000
   0.63188363  0.58761546  0.50000000
   0.13188363  0.08761546  0.50000000
   0.36811637  0.41238454  0.50000000
   0.86811637  0.91238454  0.50000000
   0.91238454  0.13188363  0.50000000
   0.41238454  0.63188363  0.50000000
   0.08761546  0.86811637  0.50000000
   0.58761546  0.36811637  0.50000000
   0.74574720  0.65389826  0.50000000
   0.24574720  0.15389826  0.50000000
   0.25425280  0.34610174  0.50000000
   0.75425280  0.84610174  0.50000000
   0.84610174  0.24574720  0.50000000
   0.34610174  0.74574720  0.50000000
   0.15389826  0.75425280  0.50000000
   0.65389826  0.25425280  0.50000000
   0.77308546  0.72050084  0.50000000
   0.27308546  0.22050084  0.50000000
   0.22691454  0.27949916  0.50000000
   0.72691454  0.77949916  0.50000000
   0.77949916  0.27308546  0.50000000
   0.27949916  0.77308546  0.50000000
   0.22050084  0.72691454  0.50000000
   0.72050084  0.22691454  0.50000000
   0.15567015  0.26898012  0.50000000
   0.65567015  0.76898012  0.50000000
   0.84432985  0.73101988  0.50000000
   0.34432985  0.23101988  0.50000000
   0.23101988  0.65567015  0.50000000
   0.73101988  0.15567015  0.50000000
   0.76898012  0.34432985  0.50000000
   0.26898012  0.84432985  0.50000000
   0.06467165  0.10508421  0.50000000
   0.56467165  0.60508421  0.50000000
   0.93532835  0.89491579  0.50000000
   0.43532835  0.39491579  0.50000000
   0.39491579  0.56467165  0.50000000
   0.89491579  0.06467165  0.50000000
   0.60508421  0.43532835  0.50000000
   0.10508421  0.93532835  0.50000000
 
 position of ions in cartesian coordinates  (Angst):
  -0.00000000 -0.00000000  6.46830416
  13.87174108 -0.00000001  6.46830416
   3.10217694  2.61899660  6.46830416
  16.97391802  2.61899659  6.46830416
  24.64130522 -2.61899661  6.46830416
  10.76956414 -2.61899660  6.46830416
  11.25274448  3.10217693  6.46830416
  11.25274448-10.76956415  6.46830416
  16.49073768 -3.10217695  6.46830416
  16.49073768 10.76956413  6.46830416
  16.36533488 -1.52271171  6.46830416
   2.49359380 -1.52271170  6.46830416
  11.37814728  1.52271170  6.46830416
  25.24988836  1.52271169  6.46830416
  15.39445278-11.37814728  6.46830416
  15.39445278  2.49359380  6.46830416
  12.34902938 11.37814727  6.46830416
  12.34902938 -2.49359381  6.46830416
  19.29616447 -2.36036436  6.46830416
   5.42442339 -2.36036435  6.46830416
   8.44731769  2.36036434  6.46830416
  22.31905877  2.36036434  6.46830416
  16.23210542 -8.44731769  6.46830416
  16.23210543  5.42442339  6.46830416
  11.51137674  8.44731768  6.46830416
  11.51137673 -5.42442340  6.46830416
   6.03355133  2.65518091  6.46830416
  19.90529241  2.65518091  6.46830416
  21.70993083 -2.65518093  6.46830416
   7.83818975 -2.65518092  6.46830416
  11.21656017  6.03355132  6.46830416
  11.21656016 -7.83818976  6.46830416
  16.52692199 -6.03355134  6.46830416
  16.52692200  7.83818974  6.46830416
   3.31530901  1.55738081  6.46830416
  17.18705008  1.55738080  6.46830416
  24.42817315 -1.55738082  6.46830416
  10.55643207 -1.55738081  6.46830416
  12.31436027  3.31530900  6.46830416
  12.31436027-10.55643208  6.46830416
  15.42912189 -3.31530901  6.46830416
  15.42912189 10.55643207  6.46830416
   4.61630380  1.01477115  6.46830416
  18.48804488  1.01477114  6.46830416
  23.12717836 -1.01477116  6.46830416
   9.25543728 -1.01477116  6.46830416
  12.85696993  4.61630379  6.46830416
  12.85696992 -9.25543729  6.46830416
  14.88651223 -4.61630380  6.46830416
  14.88651224  9.25543727  6.46830416
  18.31224497 -0.42456124  6.46830416
   4.44050389 -0.42456124  6.46830416
   9.43123719  0.42456123  6.46830416
  23.30297827  0.42456122  6.46830416
  14.29630231 -9.43123719  6.46830416
  14.29630232  4.44050389  6.46830416
  13.44717985  9.43123718  6.46830416
  13.44717984 -4.44050390  6.46830416
  16.91657557 -0.61407655  6.46830416
   3.04483449 -0.61407655  6.46830416
  10.82690659  0.61407654  6.46830416
  24.69864767  0.61407653  6.46830416
  14.48581762-10.82690659  6.46830416
  14.48581763  3.04483449  6.46830416
  13.25766454 10.82690658  6.46830416
  13.25766453 -3.04483450  6.46830416
  19.41551939 -1.27410476  6.46830416
   5.54377831 -1.27410475  6.46830416
   8.32796276  1.27410474  6.46830416
  22.19970384  1.27410474  6.46830416
  15.14584582 -8.32796277  6.46830416
  15.14584583  5.54377831  6.46830416
  12.59763634  8.32796276  6.46830416
  12.59763633 -5.54377832  6.46830416
  20.71864243 -0.72944025  6.46830416
   6.84690135 -0.72944024  6.46830416
   7.02483973  0.72944024  6.46830416
  20.89658081  0.72944023  6.46830416
  14.60118132 -7.02483973  6.46830416
  14.60118132  6.84690135  6.46830416
  13.14230084  7.02483972  6.46830416
  13.14230084 -6.84690136  6.46830416
   5.89063854  1.57180652  6.46830416
  19.76237962  1.57180652  6.46830416
  21.85284362 -1.57180654  6.46830416
   7.98110254 -1.57180653  6.46830416
  12.29993455  5.89063853  6.46830416
  12.29993455 -7.98110255  6.46830416
  15.44354760 -5.89063855  6.46830416
  15.44354761  7.98110253  6.46830416
   2.35480931  0.56059265  6.46830416
  16.22655039  0.56059264  6.46830416
  25.38867285 -0.56059266  6.46830416
  11.51693177 -0.56059266  6.46830416
  13.31114843  2.35480930  6.46830416
  13.31114842-11.51693178  6.46830416
  14.43233373 -2.35480932  6.46830416
  14.43233374 11.51693176  6.46830416
 


--------------------------------------------------------------------------------------------------------


 k-point   1 :   0.5000 0.5000 0.0000  plane waves:  126492
 k-point   2 :   0.5000 0.4643 0.0000  plane waves:  126464
 k-point   3 :   0.5000 0.4286 0.0000  plane waves:  126470
 k-point   4 :   0.5000 0.3929 0.0000  plane waves:  126466
 k-point   5 :   0.5000 0.3571 0.0000  plane waves:  126440
 k-point   6 :   0.5000 0.3214 0.0000  plane waves:  126398
 k-point   7 :   0.5000 0.2857 0.0000  plane waves:  126422
 k-point   8 :   0.5000 0.2500 0.0000  plane waves:  126436
 k-point   9 :   0.5000 0.2143 0.0000  plane waves:  126474
 k-point  10 :   0.5000 0.1786 0.0000  plane waves:  126468
 k-point  11 :   0.5000 0.1429 0.0000  plane waves:  126478
 k-point  12 :   0.5000 0.1071 0.0000  plane waves:  126464
 k-point  13 :   0.5000 0.0714 0.0000  plane waves:  126462
 k-point  14 :   0.5000 0.0357 0.0000  plane waves:  126466
 k-point  15 :   0.5000 0.0000 0.0000  plane waves:  126408
 k-point  16 :   0.5000 0.0000 0.0000  plane waves:  126408
 k-point  17 :   0.5357 0.0000 0.0000  plane waves:  126410
 k-point  18 :   0.5714 0.0000 0.0000  plane waves:  126436
 k-point  19 :   0.6071 0.0000 0.0000  plane waves:  126414
 k-point  20 :   0.6429 0.0000 0.0000  plane waves:  126418
 k-point  21 :   0.6786 0.0000 0.0000  plane waves:  126448
 k-point  22 :   0.7143 0.0000 0.0000  plane waves:  126436
 k-point  23 :   0.7500 0.0000 0.0000  plane waves:  126398
 k-point  24 :   0.7857 0.0000 0.0000  plane waves:  126379
 k-point  25 :   0.8214 0.0000 0.0000  plane waves:  126357
 k-point  26 :   0.8571 0.0000 0.0000  plane waves:  126379
 k-point  27 :   0.8929 0.0000 0.0000  plane waves:  126435
 k-point  28 :   0.9286 0.0000 0.0000  plane waves:  126391
 k-point  29 :   0.9643 0.0000 0.0000  plane waves:  126389
 k-point  30 :   1.0000 0.0000 0.0000  plane waves:  126479
 k-point  31 :   1.0000 0.0000 0.0000  plane waves:  126479
 k-point  32 :   0.9643 0.0357 0.0000  plane waves:  126401
 k-point  33 :   0.9286 0.0714 0.0000  plane waves:  126405
 k-point  34 :   0.8929 0.1071 0.0000  plane waves:  126379
 k-point  35 :   0.8571 0.1429 0.0000  plane waves:  126349
 k-point  36 :   0.8214 0.1786 0.0000  plane waves:  126387
 k-point  37 :   0.7857 0.2143 0.0000  plane waves:  126401
 k-point  38 :   0.7500 0.2500 0.0000  plane waves:  126407
 k-point  39 :   0.7143 0.2857 0.0000  plane waves:  126405
 k-point  40 :   0.6786 0.3214 0.0000  plane waves:  126446
 k-point  41 :   0.6429 0.3571 0.0000  plane waves:  126420
 k-point  42 :   0.6071 0.3929 0.0000  plane waves:  126438
 k-point  43 :   0.5714 0.4286 0.0000  plane waves:  126492
 k-point  44 :   0.5357 0.4643 0.0000  plane waves:  126490
 k-point  45 :   0.5000 0.5000 0.0000  plane waves:  126492
 k-point  46 :   0.5000 0.5000 0.0000  plane waves:  126492
 k-point  47 :   0.5357 0.5357 0.0000  plane waves:  126490
 k-point  48 :   0.5714 0.5714 0.0000  plane waves:  126492
 k-point  49 :   0.6071 0.6071 0.0000  plane waves:  126438
 k-point  50 :   0.6429 0.6429 0.0000  plane waves:  126420
 k-point  51 :   0.6786 0.6786 0.0000  plane waves:  126446
 k-point  52 :   0.7143 0.7143 0.0000  plane waves:  126405
 k-point  53 :   0.7500 0.7500 0.0000  plane waves:  126407
 k-point  54 :   0.7857 0.7857 0.0000  plane waves:  126401
 k-point  55 :   0.8214 0.8214 0.0000  plane waves:  126387
 k-point  56 :   0.8571 0.8571 0.0000  plane waves:  126349
 k-point  57 :   0.8929 0.8929 0.0000  plane waves:  126379
 k-point  58 :   0.9286 0.9286 0.0000  plane waves:  126405
 k-point  59 :   0.9643 0.9643 0.0000  plane waves:  126401
 k-point  60 :   1.0000 1.0000 0.0000  plane waves:  126479
 k-point  61 :   1.0000 1.0000 0.0000  plane waves:  126479
 k-point  62 :   1.0000 0.9643 0.0000  plane waves:  126389
 k-point  63 :   1.0000 0.9286 0.0000  plane waves:  126391
 k-point  64 :   1.0000 0.8929 0.0000  plane waves:  126435
 k-point  65 :   1.0000 0.8571 0.0000  plane waves:  126379
 k-point  66 :   1.0000 0.8214 0.0000  plane waves:  126357
 k-point  67 :   1.0000 0.7857 0.0000  plane waves:  126379
 k-point  68 :   1.0000 0.7500 0.0000  plane waves:  126398
 k-point  69 :   1.0000 0.7143 0.0000  plane waves:  126436
 k-point  70 :   1.0000 0.6786 0.0000  plane waves:  126448
 k-point  71 :   1.0000 0.6429 0.0000  plane waves:  126418
 k-point  72 :   1.0000 0.6071 0.0000  plane waves:  126414
 k-point  73 :   1.0000 0.5714 0.0000  plane waves:  126436
 k-point  74 :   1.0000 0.5357 0.0000  plane waves:  126410
 k-point  75 :   1.0000 0.5000 0.0000  plane waves:  126408
 k-point  76 :   1.0000 0.5000 0.0000  plane waves:  126408
 k-point  77 :   0.9643 0.5000 0.0000  plane waves:  126466
 k-point  78 :   0.9286 0.5000 0.0000  plane waves:  126462
 k-point  79 :   0.8929 0.5000 0.0000  plane waves:  126464
 k-point  80 :   0.8571 0.5000 0.0000  plane waves:  126478
 k-point  81 :   0.8214 0.5000 0.0000  plane waves:  126468
 k-point  82 :   0.7857 0.5000 0.0000  plane waves:  126474
 k-point  83 :   0.7500 0.5000 0.0000  plane waves:  126436
 k-point  84 :   0.7143 0.5000 0.0000  plane waves:  126422
 k-point  85 :   0.6786 0.5000 0.0000  plane waves:  126398
 k-point  86 :   0.6429 0.5000 0.0000  plane waves:  126440
 k-point  87 :   0.6071 0.5000 0.0000  plane waves:  126466
 k-point  88 :   0.5714 0.5000 0.0000  plane waves:  126470
 k-point  89 :   0.5357 0.5000 0.0000  plane waves:  126464
 k-point  90 :   0.5000 0.5000 0.0000  plane waves:  126492

 maximum and minimum number of plane-waves per node :     10588    10469

 maximum number of plane-waves:    126492
 maximum index in each direction: 
   IXMAX=   35   IYMAX=   35   IZMAX=   23
   IXMIN=  -36   IYMIN=  -36   IZMIN=  -23


 real space projection operators:
  total allocation   :       4937.91 KBytes
  max/ min on nodes  :        415.22        406.58


 parallel 3D FFT for wavefunctions:
    minimum data exchange during FFTs selected (reduces bandwidth)
[...]
   0.630E+02 0.534E+02 -.509E-11   -.660E+02 -.769E+02 -.690E-14   0.323E+01 0.234E+02 0.135E-14   -.338E-01 0.265E+00 0.139E-11
   0.630E+02 0.534E+02 -.578E-11   -.660E+02 -.769E+02 -.690E-14   0.325E+01 0.234E+02 0.135E-14   -.364E-01 0.265E+00 -.204E-11
   -.630E+02 -.534E+02 0.994E-12   0.660E+02 0.769E+02 0.673E-14   -.323E+01 -.234E+02 -.135E-14   0.338E-01 -.265E+00 0.620E-12
   -.630E+02 -.534E+02 0.154E-11   0.660E+02 0.769E+02 0.673E-14   -.325E+01 -.234E+02 -.135E-14   0.364E-01 -.265E+00 -.130E-12
 -----------------------------------------------------------------------------------------------
   -.711E-10 -.592E-10 0.234E-10   0.284E-13 0.114E-12 -.290E-15   -.222E-14 -.711E-14 -.236E-21   0.130E-11 0.137E-10 -.694E-11
 
 
 POSITION                                       TOTAL-FORCE (eV/Angst)
 -----------------------------------------------------------------------------------
     -0.00000     -0.00000      6.46830        -0.000000     -0.000000     -0.000000
     13.87174     -0.00000      6.46830        -0.000000     -0.000000      0.000000
      3.10218      2.61900      6.46830         0.025013     -0.011530      0.000000
     16.97392      2.61900      6.46830         0.025474     -0.011810      0.000000
     24.64131     -2.61900      6.46830        -0.025013      0.011530     -0.000000
     10.76956     -2.61900      6.46830        -0.025474      0.011810     -0.000000
     11.25274      3.10218      6.46830         0.011530      0.025013      0.000000
     11.25274    -10.76956      6.46830         0.011810      0.025474      0.000000
     16.49074     -3.10218      6.46830        -0.011530     -0.025013     -0.000000
     16.49074     10.76956      6.46830        -0.011810     -0.025474     -0.000000
     16.36533     -1.52271      6.46830         0.038971     -0.027621      0.000000
      2.49359     -1.52271      6.46830         0.038740     -0.028446      0.000000
     11.37815      1.52271      6.46830        -0.038971      0.027621     -0.000000
     25.24989      1.52271      6.46830        -0.038740      0.028446     -0.000000
     15.39445    -11.37815      6.46830         0.027621      0.038971      0.000000
     15.39445      2.49359      6.46830         0.028446      0.038740      0.000000
     12.34903     11.37815      6.46830        -0.027621     -0.038971     -0.000000
     12.34903     -2.49359      6.46830        -0.028446     -0.038740     -0.000000
     19.29616     -2.36036      6.46830         0.008825     -0.010975     -0.000000
      5.42442     -2.36036      6.46830         0.008654     -0.010455     -0.000000
      8.44732      2.36036      6.46830        -0.008825      0.010975      0.000000
     22.31906      2.36036      6.46830        -0.008654      0.010455      0.000000
     16.23211     -8.44732      6.46830         0.010975      0.008825      0.000000
     16.23211      5.42442      6.46830         0.010455      0.008654      0.000000
     11.51138      8.44732      6.46830        -0.010975     -0.008825     -0.000000
     11.51138     -5.42442      6.46830        -0.010455     -0.008654     -0.000000
      6.03355      2.65518      6.46830         0.015923      0.012045      0.000000
     19.90529      2.65518      6.46830         0.016004      0.011629      0.000000
     21.70993     -2.65518      6.46830        -0.015923     -0.012045     -0.000000
      7.83819     -2.65518      6.46830        -0.016004     -0.011629     -0.000000
     11.21656      6.03355      6.46830        -0.012045      0.015923      0.000000
     11.21656     -7.83819      6.46830        -0.011629      0.016004      0.000000
     16.52692     -6.03355      6.46830         0.012045     -0.015923     -0.000000
     16.52692      7.83819      6.46830         0.011629     -0.016004     -0.000000
      3.31531      1.55738      6.46830         0.097331      0.053306      0.000000
     17.18705      1.55738      6.46830         0.100711      0.049483      0.000000
     24.42817     -1.55738      6.46830        -0.097331     -0.053306     -0.000000
     10.55643     -1.55738      6.46830        -0.100711     -0.049483     -0.000000
     12.31436      3.31531      6.46830        -0.053306      0.097331      0.000000
     12.31436    -10.55643      6.46830        -0.049483      0.100711      0.000000
     15.42912     -3.31531      6.46830         0.053306     -0.097331     -0.000000
     15.42912     10.55643      6.46830         0.049483     -0.100711     -0.000000
      4.61630      1.01477      6.46830        -0.192727     -0.052484     -0.000000
     18.48804      1.01477      6.46830        -0.200004     -0.050822     -0.000000
     23.12718     -1.01477      6.46830         0.192727      0.052484      0.000000
      9.25544     -1.01477      6.46830         0.200004      0.050822      0.000000
     12.85697      4.61630      6.46830         0.052484     -0.192727     -0.000000
     12.85697     -9.25544      6.46830         0.050822     -0.200004     -0.000000
     14.88651     -4.61630      6.46830        -0.052484      0.192727      0.000000
     14.88651      9.25544      6.46830        -0.050822      0.200004      0.000000
     18.31224     -0.42456      6.46830        -0.025775      0.044135      0.000000
      4.44050     -0.42456      6.46830        -0.026088      0.038406      0.000000
      9.43124      0.42456      6.46830         0.025775     -0.044135     -0.000000
     23.30298      0.42456      6.46830         0.026088     -0.038406     -0.000000
     14.29630     -9.43124      6.46830        -0.044135     -0.025775     -0.000000
     14.29630      4.44050      6.46830        -0.038406     -0.026088     -0.000000
     13.44718      9.43124      6.46830         0.044135      0.025775      0.000000
     13.44718     -4.44050      6.46830         0.038406      0.026088      0.000000
     16.91658     -0.61408      6.46830        -0.059331      0.068869      0.000000
      3.04483     -0.61408      6.46830        -0.047462      0.065794      0.000000
     10.82691      0.61408      6.46830         0.059331     -0.068869     -0.000000
     24.69865      0.61408      6.46830         0.047462     -0.065794     -0.000000
     14.48582    -10.82691      6.46830        -0.068869     -0.059331     -0.000000
     14.48582      3.04483      6.46830        -0.065794     -0.047462     -0.000000
     13.25766     10.82691      6.46830         0.068869      0.059331      0.000000
     13.25766     -3.04483      6.46830         0.065794      0.047462      0.000000
     19.41552     -1.27410      6.46830        -0.047523      0.042567     -0.000000
      5.54378     -1.27410      6.46830        -0.052545      0.043769     -0.000000
      8.32796      1.27410      6.46830         0.047523     -0.042567      0.000000
     22.19970      1.27410      6.46830         0.052545     -0.043769      0.000000
     15.14585     -8.32796      6.46830        -0.042567     -0.047523     -0.000000
     15.14585      5.54378      6.46830        -0.043769     -0.052545     -0.000000
     12.59764      8.32796      6.46830         0.042567      0.047523      0.000000
     12.59764     -5.54378      6.46830         0.043769      0.052545      0.000000
     20.71864     -0.72944      6.46830         0.074625     -0.015508      0.000000
      6.84690     -0.72944      6.46830         0.081679     -0.020079      0.000000
      7.02484      0.72944      6.46830        -0.074625      0.015508     -0.000000
     20.89658      0.72944      6.46830        -0.081679      0.020079     -0.000000
     14.60118     -7.02484      6.46830         0.015508      0.074625      0.000000
     14.60118      6.84690      6.46830         0.020079      0.081679      0.000000
     13.14230      7.02484      6.46830        -0.015508     -0.074625     -0.000000
     13.14230     -6.84690      6.46830        -0.020079     -0.081679     -0.000000
      5.89064      1.57181      6.46830         0.092218      0.023393      0.000000
     19.76238      1.57181      6.46830         0.098717      0.019819      0.000000
     21.85284     -1.57181      6.46830        -0.092218     -0.023393     -0.000000
      7.98110     -1.57181      6.46830        -0.098717     -0.019819     -0.000000
     12.29993      5.89064      6.46830        -0.023393      0.092218      0.000000
     12.29993     -7.98110      6.46830        -0.019819      0.098717      0.000000
     15.44355     -5.89064      6.46830         0.023393     -0.092218     -0.000000
     15.44355      7.98110      6.46830         0.019819     -0.098717     -0.000000
      2.35481      0.56059      6.46830         0.192026     -0.141821      0.000000
     16.22655      0.56059      6.46830         0.203652     -0.141770      0.000000
     25.38867     -0.56059      6.46830        -0.192026      0.141821     -0.000000
     11.51693     -0.56059      6.46830        -0.203652      0.141770     -0.000000
     13.31115      2.35481      6.46830         0.141821      0.192026      0.000000
     13.31115    -11.51693      6.46830         0.141770      0.203652      0.000000
     14.43233     -2.35481      6.46830        -0.141821     -0.192026     -0.000000
     14.43233     11.51693      6.46830        -0.141770     -0.203652     -0.000000
 -----------------------------------------------------------------------------------
    total drift:                               -0.000000     -0.000000      0.000000


--------------------------------------------------------------------------------------------------------



  FREE ENERGIE OF THE ION-ELECTRON SYSTEM (eV)
  ---------------------------------------------------
  free  energy   TOTEN  =      -695.48408533 eV

  energy  without entropy=     -695.48988243  energy(sigma->0) =     -695.48601770
 


--------------------------------------------------------------------------------------------------------


    POTLOK:  cpu time      0.2452: real time      0.2499


--------------------------------------------------------------------------------------------------------


     LOOP+:  cpu time   2440.5976: real time   2509.5608
    4ORBIT:  cpu time      0.0000: real time      0.0000



 total charge

# of ion       s       p       d       tot
------------------------------------------
    1        0.171   6.077   4.037  10.285
    2        0.171   6.077   4.037  10.285
    3        0.650   0.050   0.000   0.701
    4        0.650   0.050   0.000   0.701
    5        0.650   0.050   0.000   0.701
    6        0.650   0.050   0.000   0.701
    7        0.650   0.050   0.000   0.701
    8        0.650   0.050   0.000   0.701
    9        0.650   0.050   0.000   0.701
   10        0.650   0.050   0.000   0.701
   11        0.667   0.060   0.000   0.728
   12        0.667   0.060   0.000   0.728
   13        0.667   0.060   0.000   0.728
   14        0.667   0.060   0.000   0.728
   15        0.667   0.060   0.000   0.728
   16        0.667   0.060   0.000   0.728
   17        0.667   0.060   0.000   0.728
   18        0.667   0.060   0.000   0.728
   19        0.644   0.045   0.000   0.689
   20        0.644   0.045   0.000   0.689
   21        0.644   0.045   0.000   0.689
   22        0.644   0.045   0.000   0.689
   23        0.644   0.045   0.000   0.689
   24        0.644   0.045   0.000   0.689
   25        0.644   0.045   0.000   0.689
   26        0.644   0.045   0.000   0.689
   27        0.643   0.045   0.000   0.688
   28        0.643   0.045   0.000   0.688
   29        0.643   0.045   0.000   0.688
   30        0.643   0.045   0.000   0.688
   31        0.643   0.045   0.000   0.688
   32        0.643   0.045   0.000   0.688
   33        0.643   0.045   0.000   0.688
   34        0.643   0.045   0.000   0.688
   35        0.860   1.746   0.000   2.605
   36        0.859   1.746   0.000   2.605
   37        0.860   1.746   0.000   2.605
   38        0.859   1.746   0.000   2.605
   39        0.860   1.746   0.000   2.605
   40        0.859   1.746   0.000   2.605
   41        0.860   1.746   0.000   2.605
   42        0.859   1.746   0.000   2.605
   43        0.871   1.804   0.000   2.675
   44        0.871   1.804   0.000   2.675
   45        0.871   1.804   0.000   2.675
   46        0.871   1.804   0.000   2.675
   47        0.871   1.804   0.000   2.675
   48        0.871   1.804   0.000   2.675
   49        0.871   1.804   0.000   2.675
   50        0.871   1.804   0.000   2.675
   51        0.870   1.805   0.000   2.675
   52        0.870   1.805   0.000   2.675
   53        0.870   1.805   0.000   2.675
   54        0.870   1.805   0.000   2.675
   55        0.870   1.805   0.000   2.675
   56        0.870   1.805   0.000   2.675
   57        0.870   1.805   0.000   2.675
   58        0.870   1.805   0.000   2.675
   59        0.872   1.771   0.000   2.644
   60        0.872   1.772   0.000   2.644
   61        0.872   1.771   0.000   2.644
   62        0.872   1.772   0.000   2.644
   63        0.872   1.771   0.000   2.644
   64        0.872   1.772   0.000   2.644
   65        0.872   1.771   0.000   2.644
   66        0.872   1.772   0.000   2.644
   67        0.869   1.753   0.000   2.621
   68        0.869   1.753   0.000   2.621
   69        0.869   1.753   0.000   2.621
   70        0.869   1.753   0.000   2.621
   71        0.869   1.753   0.000   2.621
   72        0.869   1.753   0.000   2.621
   73        0.869   1.753   0.000   2.621
   74        0.869   1.753   0.000   2.621
   75        0.859   1.770   0.000   2.629
   76        0.859   1.770   0.000   2.629
   77        0.859   1.770   0.000   2.629
   78        0.859   1.770   0.000   2.629
   79        0.859   1.770   0.000   2.629
   80        0.859   1.770   0.000   2.629
   81        0.859   1.770   0.000   2.629
   82        0.859   1.770   0.000   2.629
   83        0.869   1.754   0.000   2.623
   84        0.869   1.755   0.000   2.623
   85        0.869   1.754   0.000   2.623
   86        0.869   1.755   0.000   2.623
   87        0.869   1.754   0.000   2.623
   88        0.869   1.755   0.000   2.623
   89        0.869   1.754   0.000   2.623
   90        0.869   1.755   0.000   2.623
   91        1.239   2.602   0.000   3.841
   92        1.239   2.602   0.000   3.841
   93        1.239   2.602   0.000   3.841
   94        1.239   2.602   0.000   3.841
   95        1.239   2.602   0.000   3.841
   96        1.239   2.602   0.000   3.841
   97        1.239   2.602   0.000   3.841
   98        1.239   2.602   0.000   3.841
--------------------------------------------------
tot         79.642 133.795   8.074 221.511



 magnetization (x)

# of ion       s       p       d       tot
------------------------------------------
    1        0.063   0.016   3.819   3.898
    2       -0.063  -0.016  -3.819  -3.898
    3       -0.003   0.002   0.000  -0.001
    4       -0.003   0.002   0.000  -0.001
    5       -0.003   0.002   0.000  -0.001
    6       -0.003   0.002   0.000  -0.001
    7        0.003  -0.002   0.000   0.001
    8        0.003  -0.002   0.000   0.001
    9        0.003  -0.002   0.000   0.001
   10        0.003  -0.002   0.000   0.001
   11       -0.003   0.001   0.000  -0.001
   12       -0.003   0.002   0.000  -0.001
   13       -0.003   0.001   0.000  -0.001
   14       -0.003   0.002   0.000  -0.001
   15        0.003  -0.001   0.000   0.001
   16        0.003  -0.002   0.000   0.001
   17        0.003  -0.001   0.000   0.001
   18        0.003  -0.002   0.000   0.001
   19       -0.002   0.001   0.000  -0.001
   20       -0.002   0.001   0.000  -0.001
   21       -0.002   0.001   0.000  -0.001
   22       -0.002   0.001   0.000  -0.001
   23        0.002  -0.001   0.000   0.001
   24        0.002  -0.001   0.000   0.001
   25        0.002  -0.001   0.000   0.001
   26        0.002  -0.001   0.000   0.001
   27       -0.002   0.001   0.000  -0.001
   28       -0.002   0.001   0.000  -0.001
   29       -0.002   0.001   0.000  -0.001
   30       -0.002   0.001   0.000  -0.001
   31        0.002  -0.001   0.000   0.001
   32        0.002  -0.001   0.000   0.001
   33        0.002  -0.001   0.000   0.001
   34        0.002  -0.001   0.000   0.001
   35        0.005   0.089   0.000   0.094
   36        0.006   0.089   0.000   0.094
   37        0.005   0.089   0.000   0.094
   38        0.006   0.089   0.000   0.094
   39       -0.005  -0.089   0.000  -0.094
   40       -0.006  -0.089   0.000  -0.094
   41       -0.005  -0.089   0.000  -0.094
   42       -0.006  -0.089   0.000  -0.094
   43       -0.002  -0.018   0.000  -0.020
   44       -0.001  -0.015   0.000  -0.017
   45       -0.002  -0.018   0.000  -0.020
   46       -0.001  -0.015   0.000  -0.017
   47        0.002   0.018   0.000   0.020
   48        0.001   0.015   0.000   0.017
   49        0.002   0.018   0.000   0.020
   50        0.001   0.015   0.000   0.017
   51       -0.002  -0.015   0.000  -0.017
   52       -0.002  -0.017   0.000  -0.019
   53       -0.002  -0.015   0.000  -0.017
   54       -0.002  -0.017   0.000  -0.019
   55        0.002   0.015   0.000   0.017
   56        0.002   0.017   0.000   0.019
   57        0.002   0.015   0.000   0.017
   58        0.002   0.017   0.000   0.019
   59        0.004   0.075   0.000   0.079
   60        0.005   0.083   0.000   0.089
   61        0.004   0.075   0.000   0.079
   62        0.005   0.083   0.000   0.089
   63       -0.004  -0.075   0.000  -0.079
   64       -0.005  -0.083   0.000  -0.089
   65       -0.004  -0.075   0.000  -0.079
   66       -0.005  -0.083   0.000  -0.089
   67        0.004   0.066   0.000   0.070
   68        0.004   0.067   0.000   0.071
   69        0.004   0.066   0.000   0.070
   70        0.004   0.067   0.000   0.071
   71       -0.004  -0.066   0.000  -0.070
   72       -0.004  -0.067   0.000  -0.071
   73       -0.004  -0.066   0.000  -0.070
   74       -0.004  -0.067   0.000  -0.071
   75       -0.002  -0.015   0.000  -0.017
   76       -0.002  -0.016   0.000  -0.017
   77       -0.002  -0.015   0.000  -0.017
   78       -0.002  -0.016   0.000  -0.017
   79        0.002   0.015   0.000   0.017
   80        0.002   0.016   0.000   0.017
   81        0.002   0.015   0.000   0.017
   82        0.002   0.016   0.000   0.017
   83        0.004   0.069   0.000   0.073
   84        0.004   0.069   0.000   0.073
   85        0.004   0.069   0.000   0.073
   86        0.004   0.069   0.000   0.073
   87       -0.004  -0.069   0.000  -0.073
   88       -0.004  -0.069   0.000  -0.073
   89       -0.004  -0.069   0.000  -0.073
   90       -0.004  -0.069   0.000  -0.073
   91       -0.008  -0.055   0.000  -0.063
   92        0.005   0.004   0.000   0.009
   93       -0.008  -0.055   0.000  -0.063
   94        0.005   0.004   0.000   0.009
   95        0.008   0.055   0.000   0.063
   96       -0.005  -0.004   0.000  -0.009
   97        0.008   0.055   0.000   0.063
   98       -0.005  -0.004   0.000  -0.009
--------------------------------------------------
tot          0.000  -0.000   0.000   0.000
 

 total amount of memory used by VASP MPI-rank0  1698361. kBytes
=======================================================================

   base      :      30000. kBytes
   nonlr-proj:       3131. kBytes
   fftplans  :      12675. kBytes
   grid      :      31850. kBytes
   one-center:        279. kBytes
   wavefun   :    1620426. kBytes
 
  
  
 General timing and accounting informations for this job:
 ========================================================
  
                  Total CPU time used (sec):     2689.464
                            User time (sec):     2594.351
                          System time (sec):       95.113
                         Elapsed time (sec):     2760.917
  
                   Maximum memory used (kb):     2097700.
                   Average memory used (kb):          N/A
  
                          Minor page faults:      1077125
                          Major page faults:          484
                 Voluntary context switches:       669478
