 vasp.6.3.2 27Jun22 (build Aug 02 2025 14:55:03) complex                        
  
 executed on             LinuxIFC date 2025.11.08  17:47:21
 running on   48 total cores
 distrk:  each k-point on   48 cores,    1 groups
 distr:  one band on NCORE=  12 cores,    4 groups


--------------------------------------------------------------------------------------------------------


 INCAR:
   PREC = Normal
   ENCUT = 500
   IBRION = -1
   ISPIN = 2
   MAGMOM = 5 -5 4*1 4*-1 4*1 4*-1 4*1 4*-1 4*1 4*-1 4*1 4*-1 4*1 4*-1 4*1 4*-1 4*1 4*-1 4*1 4*-1 4*1 4*-1 4*1 4*-1 4*1 4*-1 4*1 4*-1 4*1 4*-1 4*1 4*-1 4*1 4*-1 4*1 4*-1 4*1 4*-1 4*1 4*-1 4*1 4*-1 4*1 4*-1 4*1 4*-1 4*1 4*-1 4*1 4*-1 4*1 4*-1 4*1 4*-1 4*1 4*-1 4*1 4*-1 4*1 4*-1 4*1 4*-1 4*1 4*-1 4*1 4*-1 4*1 4*-1 4*1 4*-1 4*1 4*-1 4*1 4*-1 4*1 4*-1 4*1 4*-1 4*1 4*-1
   NSW = 0
   NELM = 200
   ISIF = 2
   EDIFF = 1E-5
   EDIFFG = -0.01
   ALGO = Fast
   ISTART = 1
   ICHARG = 11
   LREAL = Auto
   LWAVE = .F.
   LCHARG = .F.
   LVTOT = .T.
   NPAR = 4
   AMIX = 0.2
   BMIX = 0.0001
   AMIX_MAG = 0.8
   BMIX_MAG = 0.0001
   LDAU = .TRUE.
   LDAUTYPE = 2
   LDAUL = 2 -1 -1 -1 -1 -1
   LDAUU = 3.0 0 0 0 0 0
   LDAUJ = 1.0 0 0 0 0 0
   LMAXMIX = 4
   LORBIT = 11

 POTCAR:    PAW_PBE Cr_pv 02Aug2007               
 POTCAR:    PAW_PBE H 15Jun2001                   
 POTCAR:    PAW_PBE C 08Apr2002                   
 POTCAR:    PAW_PBE O 08Apr2002                   
 WARNING: For LVTOT=.TRUE., VASP.5.x writes the TOTAL local potential to the
     file LOCPOT. If you want only the Hartree contributions, use LVHAR=.TRUE.
     instead. 

 POTCAR:    PAW_PBE Cr_pv 02Aug2007               
   SHA256 =  c9a7df34d3cdbacf1090e328ef39c0b420964e11c23f63548d1ac9dd218cdba0 Cr_pv/POTCAR          
   COPYR  = (c) Copyright 02Aug2007 Georg Kresse                                                    
   COPYR  = This file is part of the software VASP. Any use, copying, and all other rights are regul
   COPYR  = If you do not have a valid VASP license, you may not use, copy or distribute this file. 
   VRHFIN =Cr : p6d5s1                                                                              
   LEXCH  = PE                                                                                      
   EATOM  =  1647.9177 eV,  121.1185 Ry                                                             
                                                                                                    
   TITEL  = PAW_PBE Cr_pv 02Aug2007                                                                 
   LULTRA =        F    use ultrasoft PP ?                                                          
   IUNSCR =        1    unscreen: 0-lin 1-nonlin 2-no                                               
   RPACOR =    2.080    partial core radius                                                         
   POMASS =   51.996; ZVAL   =   12.000    mass and valenz                                          
   RCORE  =    2.300    outmost cutoff radius                                                       
   RWIGS  =    2.500; RWIGS  =    1.323    wigner-seitz radius (au A)                               
   ENMAX  =  265.681; ENMIN  =  199.261 eV                                                          
   ICORE  =        3    local potential                                                             
   LCOR   =        T    correct aug charges                                                         
   LPAW   =        T    paw PP                                                                      
   EAUG   =  519.424                                                                                
   DEXC   =    0.000                                                                                
   RMAX   =    2.356    core radius for proj-oper                                                   
   RAUG   =    1.300    factor for augmentation sphere                                              
   RDEP   =    2.447    radius for radial grids                                                     
   RDEPT  =    1.882    core radius for aug-charge                                                  
                                                                                                    
   Atomic configuration                                                                             
    8 entries                                                                                       
     n  l   j            E        occ.                                                              
     1  0  0.50     -5880.4963   2.0000                                                             
     2  0  0.50      -667.0865   2.0000                                                             
     2  1  1.50      -560.6250   6.0000                                                             
     3  0  0.50       -73.9860   2.0000                                                             
     3  1  1.50       -45.4378   6.0000                                                             
     3  2  2.50        -2.9137   5.0000                                                             
     4  0  0.50        -4.0071   1.0000                                                             
     4  3  2.50        -1.3606   0.0000                                                             
   Description                                                                                      
     l       E           TYP  RCUT    TYP  RCUT                                                     
     1    -45.4377911     23  2.000                                                                 
     1      1.3605826     23  2.000                                                                 
     2     -2.9136672     23  2.300                                                                 
     2     -4.2742498     23  2.300                                                                 
     0     -4.0071320     23  2.300                                                                 
     0      9.4498803     23  2.300                                                                 
     3      2.7211652     23  2.300                                                                 
  local pseudopotential read in
  partial core-charges read in
  partial kinetic energy density read in
  atomic valenz-charges read in
  non local Contribution for L=           1  read in
    real space projection operators read in
  non local Contribution for L=           1  read in
    real space projection operators read in
  non local Contribution for L=           2  read in
    real space projection operators read in
  non local Contribution for L=           2  read in
    real space projection operators read in
  non local Contribution for L=           0  read in
    real space projection operators read in
  non local Contribution for L=           0  read in
    real space projection operators read in
    PAW grid and wavefunctions read in
 
   number of l-projection  operators is LMAX  =           6
   number of lm-projection operators is LMMAX =          18
 
 POTCAR:    PAW_PBE H 15Jun2001                   
   SHA256 =  030f79b5d3ab3cf0e668861823c8fb652ff669f3e15e46930bd03bfd63a607b6 H/POTCAR              
   COPYR  = (c) Copyright 15Jun2001 Georg Kresse                                                    
   COPYR  = This file is part of the software VASP. Any use, copying, and all other rights are regul
   COPYR  = If you do not have a valid VASP license, you may not use, copy or distribute this file. 
   VRHFIN =H: ultrasoft test                                                                        
   LEXCH  = PE                                                                                      
   EATOM  =    12.4884 eV,    0.9179 Ry                                                             
                                                                                                    
   TITEL  = PAW_PBE H 15Jun2001                                                                     
   LULTRA =        F    use ultrasoft PP ?                                                          
   IUNSCR =        0    unscreen: 0-lin 1-nonlin 2-no                                               
   RPACOR =    0.000    partial core radius                                                         
   POMASS =    1.000; ZVAL   =    1.000    mass and valenz                                          
   RCORE  =    1.100    outmost cutoff radius                                                       
   RWIGS  =    0.700; RWIGS  =    0.370    wigner-seitz radius (au A)                               
   ENMAX  =  250.000; ENMIN  =  200.000 eV                                                          
   RCLOC  =    0.701    cutoff for local pot                                                        
   LCOR   =        T    correct aug charges                                                         
   LPAW   =        T    paw PP                                                                      
   EAUG   =  400.000                                                                                
   RMAX   =    1.123    core radius for proj-oper                                                   
   RAUG   =    1.200    factor for augmentation sphere                                              
   RDEP   =    1.112    radius for radial grids                                                     
   RDEPT  =    0.926    core radius for aug-charge                                                  
                                                                                                    
   Atomic configuration                                                                             
    2 entries                                                                                       
     n  l   j            E        occ.                                                              
     1  0  0.50        -6.4927   1.0000                                                             
     2  1  0.50        -3.4015   0.0000                                                             
   Description                                                                                      
     l       E           TYP  RCUT    TYP  RCUT                                                     
     0     -6.4927494     23  1.100                                                                 
     0      6.8029130     23  1.100                                                                 
     1     -4.0817478     23  1.100                                                                 
  local pseudopotential read in
  atomic valenz-charges read in
  non local Contribution for L=           0  read in
    real space projection operators read in
  non local Contribution for L=           0  read in
    real space projection operators read in
  non local Contribution for L=           1  read in
    real space projection operators read in
    PAW grid and wavefunctions read in
 
   number of l-projection  operators is LMAX  =           3
   number of lm-projection operators is LMMAX =           5
 
 POTCAR:    PAW_PBE C 08Apr2002                   
   SHA256 =  253f7b50bb8d59471dbedb8285d89021f4a42ed1a2c5d38a03a736e69125dd95 C/POTCAR              
   COPYR  = (c) Copyright 08Apr2002 Georg Kresse                                                    
   COPYR  = This file is part of the software VASP. Any use, copying, and all other rights are regul
   COPYR  = If you do not have a valid VASP license, you may not use, copy or distribute this file. 
   VRHFIN =C: s2p2                                                                                  
   LEXCH  = PE                                                                                      
   EATOM  =   147.1560 eV,   10.8157 Ry                                                             
                                                                                                    
   TITEL  = PAW_PBE C 08Apr2002                                                                     
   LULTRA =        F    use ultrasoft PP ?                                                          
   IUNSCR =        1    unscreen: 0-lin 1-nonlin 2-no                                               
   RPACOR =    1.200    partial core radius                                                         
   POMASS =   12.011; ZVAL   =    4.000    mass and valenz                                          
   RCORE  =    1.500    outmost cutoff radius                                                       
   RWIGS  =    1.630; RWIGS  =    0.863    wigner-seitz radius (au A)                               
   ENMAX  =  400.000; ENMIN  =  300.000 eV                                                          
   ICORE  =        2    local potential                                                             
   LCOR   =        T    correct aug charges                                                         
   LPAW   =        T    paw PP                                                                      
   EAUG   =  644.873                                                                                
   DEXC   =    0.000                                                                                
   RMAX   =    1.529    core radius for proj-oper                                                   
   RAUG   =    1.300    factor for augmentation sphere                                              
   RDEP   =    1.501    radius for radial grids                                                     
   RDEPT  =    1.300    core radius for aug-charge                                                  
                                                                                                    
   Atomic configuration                                                                             
    4 entries                                                                                       
     n  l   j            E        occ.                                                              
     1  0  0.50      -273.3789   2.0000                                                             
     2  0  0.50       -13.7508   2.0000                                                             
     2  1  0.50        -5.2854   2.0000                                                             
     3  2  1.50        -5.4423   0.0000                                                             
   Description                                                                                      
     l       E           TYP  RCUT    TYP  RCUT                                                     
     0    -13.7508458     23  1.200                                                                 
     0     -8.2022199     23  1.200                                                                 
     1     -5.2854383     23  1.500                                                                 
     1     34.0145650     23  1.500                                                                 
     2     -5.4423304      7  1.500                                                                 
  local pseudopotential read in
  partial core-charges read in
  partial kinetic energy density read in
  atomic valenz-charges read in
  non local Contribution for L=           0  read in
    real space projection operators read in
  non local Contribution for L=           0  read in
    real space projection operators read in
  non local Contribution for L=           1  read in
    real space projection operators read in
  non local Contribution for L=           1  read in
    real space projection operators read in
    PAW grid and wavefunctions read in
 
   number of l-projection  operators is LMAX  =           4
   number of lm-projection operators is LMMAX =           8
 
 POTCAR:    PAW_PBE O 08Apr2002                   
   SHA256 =  818f92134a0a090dccd8ba1447fa70422a3b330e708bb4f08108d8ae51209ddf O/POTCAR              
   COPYR  = (c) Copyright 08Apr2002 Georg Kresse                                                    
   COPYR  = This file is part of the software VASP. Any use, copying, and all other rights are regul
   COPYR  = If you do not have a valid VASP license, you may not use, copy or distribute this file. 
   VRHFIN =O: s2p4                                                                                  
   LEXCH  = PE                                                                                      
   EATOM  =   432.3788 eV,   31.7789 Ry                                                             
                                                                                                    
   TITEL  = PAW_PBE O 08Apr2002                                                                     
   LULTRA =        F    use ultrasoft PP ?                                                          
   IUNSCR =        1    unscreen: 0-lin 1-nonlin 2-no                                               
   RPACOR =    1.200    partial core radius                                                         
   POMASS =   16.000; ZVAL   =    6.000    mass and valenz                                          
   RCORE  =    1.520    outmost cutoff radius                                                       
   RWIGS  =    1.550; RWIGS  =    0.820    wigner-seitz radius (au A)                               
   ENMAX  =  400.000; ENMIN  =  300.000 eV                                                          
   ICORE  =        2    local potential                                                             
   LCOR   =        T    correct aug charges                                                         
   LPAW   =        T    paw PP                                                                      
   EAUG   =  605.392                                                                                
   DEXC   =    0.000                                                                                
   RMAX   =    1.553    core radius for proj-oper                                                   
   RAUG   =    1.300    factor for augmentation sphere                                              
   RDEP   =    1.550    radius for radial grids                                                     
   RDEPT  =    1.329    core radius for aug-charge                                                  
                                                                                                    
   Atomic configuration                                                                             
    4 entries                                                                                       
     n  l   j            E        occ.                                                              
     1  0  0.50      -514.6923   2.0000                                                             
     2  0  0.50       -23.9615   2.0000                                                             
     2  1  0.50        -9.0305   4.0000                                                             
     3  2  1.50        -9.5241   0.0000                                                             
   Description                                                                                      
     l       E           TYP  RCUT    TYP  RCUT                                                     
     0    -23.9615318     23  1.200                                                                 
     0     -9.5240782     23  1.200                                                                 
     1     -9.0304911     23  1.520                                                                 
     1      8.1634956     23  1.520                                                                 
     2     -9.5240782      7  1.500                                                                 
  local pseudopotential read in
  partial core-charges read in
  partial kinetic energy density read in
  kinetic energy density of atom read in
  atomic valenz-charges read in
  non local Contribution for L=           0  read in
    real space projection operators read in
  non local Contribution for L=           0  read in
    real space projection operators read in
  non local Contribution for L=           1  read in
    real space projection operators read in
  non local Contribution for L=           1  read in
    real space projection operators read in
    PAW grid and wavefunctions read in
 
   number of l-projection  operators is LMAX  =           4
   number of lm-projection operators is LMMAX =           8
 
 Optimization of the real space projectors (new method)

 maximal supplied QI-value         = 16.25
 optimisation between [QCUT,QGAM] = [ 11.38, 22.75] = [ 36.24,144.96] Ry 
 Optimized for a Real-space Cutoff    1.31 Angstroem

   l    n(q)    QCUT    max X(q) W(low)/X(q) W(high)/X(q)  e(spline) 
   1      8    11.376     3.262    0.15E-03    0.36E-03    0.86E-07
   1      8    11.376     5.741    0.39E-03    0.84E-03    0.21E-06
   2      8    11.376    60.438    0.39E-03    0.55E-03    0.20E-06
   2      8    11.376    55.380    0.40E-03    0.57E-03    0.20E-06
   0      9    11.376    80.273    0.17E-03    0.16E-03    0.48E-07
   0      9    11.376    36.654    0.15E-03    0.14E-03    0.43E-07
 Optimization of the real space projectors (new method)

 maximal supplied QI-value         = 34.20
 optimisation between [QCUT,QGAM] = [ 11.29, 22.57] = [ 35.68,142.71] Ry 
 Optimized for a Real-space Cutoff    1.16 Angstroem

   l    n(q)    QCUT    max X(q) W(low)/X(q) W(high)/X(q)  e(spline) 
   0      8    11.287    19.460    0.40E-03    0.73E-03    0.16E-06
   0      8    11.287    12.209    0.38E-03    0.70E-03    0.15E-06
   1      7    11.287     4.655    0.22E-03    0.25E-04    0.22E-06
 Optimization of the real space projectors (new method)

 maximal supplied QI-value         = 25.13
 optimisation between [QCUT,QGAM] = [ 11.31, 22.87] = [ 35.82,146.48] Ry 
 Optimized for a Real-space Cutoff    1.00 Angstroem

   l    n(q)    QCUT    max X(q) W(low)/X(q) W(high)/X(q)  e(spline) 
   0      7    11.310   115.676    0.43E-03    0.13E-02    0.19E-06
   0      7    11.310    87.132    0.43E-03    0.13E-02    0.18E-06
   1      6    11.310     4.429    0.42E-03    0.74E-03    0.11E-06
   1      6    11.310     2.733    0.34E-03    0.55E-03    0.92E-07
 Optimization of the real space projectors (new method)

 maximal supplied QI-value         = 24.76
 optimisation between [QCUT,QGAM] = [ 11.39, 22.77] = [ 36.31,145.25] Ry 
 Optimized for a Real-space Cutoff    1.00 Angstroem

   l    n(q)    QCUT    max X(q) W(low)/X(q) W(high)/X(q)  e(spline) 
   0      7    11.387    20.381    0.39E-03    0.13E-02    0.15E-06
   0      7    11.387    15.268    0.42E-03    0.14E-02    0.17E-06
   1      6    11.387     5.964    0.41E-03    0.11E-02    0.17E-06
   1      6    11.387     5.382    0.39E-03    0.87E-03    0.15E-06
  PAW_PBE Cr_pv 02Aug2007               :
 energy of atom  1       EATOM=-1647.9177
 kinetic energy error for atom=    0.0061 (will be added to EATOM!!)
  PAW_PBE H 15Jun2001                   :
 energy of atom  2       EATOM=  -12.4884
 kinetic energy error for atom=    0.0020 (will be added to EATOM!!)
  PAW_PBE C 08Apr2002                   :
 energy of atom  3       EATOM= -147.1560
 kinetic energy error for atom=    0.0076 (will be added to EATOM!!)
  PAW_PBE O 08Apr2002                   :
 energy of atom  4       EATOM= -432.3788
 kinetic energy error for atom=    0.0224 (will be added to EATOM!!)
 
 
 POSCAR: Cr2 H24 C64 O32
  positions in direct lattice
  No initial velocities read in
 exchange correlation table for  LEXCH =        8
   RHO(1)=    0.500       N(1)  =     2000
   RHO(2)=  100.500       N(2)  =     4000
 


--------------------------------------------------------------------------------------------------------


 ion  position               nearest neighbor table
   1  0.000  0.000  0.531-  91 1.85  95 1.85  94 1.85  98 1.85
   2  0.500  0.500  0.531-  92 1.85  93 1.85  96 1.85  97 1.85
   3  0.026  0.228  0.519-  43 1.09
   4  0.526  0.728  0.519-  44 1.09
   5  0.974  0.772  0.519-  45 1.09
   6  0.474  0.272  0.519-  46 1.09
   7  0.272  0.526  0.519-  47 1.09
   8  0.772  0.026  0.519-  48 1.09
   9  0.728  0.474  0.519-  49 1.09
  10  0.228  0.974  0.519-  50 1.09
  11  0.046  0.342  0.495-  51 1.09
  12  0.546  0.842  0.495-  52 1.09
  13  0.954  0.658  0.495-  53 1.09
  14  0.454  0.158  0.495-  54 1.09
  15  0.158  0.546  0.495-  55 1.09
  16  0.658  0.046  0.495-  56 1.09
  17  0.842  0.454  0.495-  57 1.09
  18  0.342  0.954  0.495-  58 1.09
  19  0.156  0.382  0.494-  59 1.09
  20  0.656  0.882  0.494-  60 1.09
  21  0.844  0.618  0.494-  61 1.09
  22  0.344  0.118  0.494-  62 1.09
  23  0.118  0.656  0.494-  63 1.09
  24  0.618  0.156  0.494-  64 1.09
  25  0.882  0.344  0.494-  65 1.09
  26  0.382  0.844  0.494-  66 1.09
  27  0.072  0.110  0.469-  99 1.21  91 1.30 107 1.43
  28  0.572  0.610  0.469- 100 1.21  92 1.30 108 1.43
  29  0.428  0.390  0.469- 102 1.21  93 1.30 109 1.43
  30  0.928  0.890  0.469- 101 1.21  94 1.30 110 1.43
  31  0.890  0.072  0.469- 104 1.21  95 1.30 111 1.43
  32  0.390  0.572  0.469- 103 1.21  96 1.30 112 1.43
  33  0.610  0.428  0.469- 105 1.21  97 1.30 113 1.43
  34  0.110  0.928  0.469- 106 1.21  98 1.30 114 1.43
  35  0.123  0.204  0.525- 107 1.35  43 1.41  75 1.44
  36  0.623  0.704  0.525- 108 1.35  44 1.41  76 1.44
  37  0.877  0.796  0.525- 110 1.35  45 1.41  77 1.44
  38  0.377  0.296  0.525- 109 1.35  46 1.41  78 1.44
  39  0.296  0.623  0.525- 112 1.35  47 1.41  79 1.44
  40  0.796  0.123  0.525- 111 1.35  48 1.41  80 1.44
  41  0.704  0.377  0.525- 113 1.35  49 1.41  81 1.44
  42  0.204  0.877  0.525- 114 1.35  50 1.41  82 1.44
  43  0.073  0.246  0.515-   3 1.09  35 1.41  51 1.41
  44  0.573  0.746  0.515-   4 1.09  36 1.41  52 1.41
  45  0.927  0.754  0.515-   5 1.09  37 1.41  53 1.41
  46  0.427  0.254  0.515-   6 1.09  38 1.41  54 1.41
  47  0.254  0.573  0.515-   7 1.09  39 1.41  55 1.41
  48  0.754  0.073  0.515-   8 1.09  40 1.41  56 1.41
  49  0.746  0.427  0.515-   9 1.09  41 1.41  57 1.41
  50  0.246  0.927  0.515-  10 1.09  42 1.41  58 1.41
  51  0.085  0.310  0.502-  11 1.09  59 1.41  43 1.41
  52  0.585  0.810  0.502-  12 1.09  60 1.41  44 1.41
  53  0.915  0.690  0.502-  13 1.09  61 1.41  45 1.41
  54  0.415  0.190  0.502-  14 1.09  62 1.41  46 1.41
  55  0.190  0.585  0.502-  15 1.09  63 1.41  47 1.41
  56  0.690  0.085  0.502-  16 1.09  64 1.41  48 1.41
  57  0.810  0.415  0.502-  17 1.09  65 1.41  49 1.41
  58  0.310  0.915  0.502-  18 1.09  66 1.41  50 1.41
  59  0.146  0.333  0.501-  19 1.09  51 1.41  67 1.42
  60  0.646  0.833  0.501-  20 1.09  52 1.41  68 1.42
  61  0.854  0.667  0.501-  21 1.09  53 1.41  69 1.42
  62  0.354  0.167  0.501-  22 1.09  54 1.41  70 1.42
  63  0.167  0.646  0.501-  23 1.09  55 1.41  71 1.42
  64  0.667  0.146  0.501-  24 1.09  56 1.41  72 1.42
  65  0.833  0.354  0.501-  25 1.09  57 1.41  73 1.42
  66  0.333  0.854  0.501-  26 1.09  58 1.41  74 1.42
  67  0.197  0.291  0.509-  59 1.42  75 1.46  83 1.50
  68  0.697  0.791  0.509-  60 1.42  76 1.46  84 1.50
  69  0.803  0.709  0.509-  61 1.42  77 1.46  85 1.50
  70  0.303  0.209  0.509-  62 1.42  78 1.46  86 1.50
  71  0.209  0.697  0.509-  63 1.42  79 1.46  87 1.50
  72  0.709  0.197  0.509-  64 1.42  80 1.46  88 1.50
  73  0.791  0.303  0.509-  65 1.42  81 1.46  89 1.50
  74  0.291  0.803  0.509-  66 1.42  82 1.46  90 1.50
  75  0.186  0.224  0.517-  35 1.44  67 1.46  86 1.48
  76  0.686  0.724  0.517-  36 1.44  68 1.46  85 1.48
  77  0.814  0.776  0.517-  37 1.44  69 1.46  84 1.48
  78  0.314  0.276  0.517-  38 1.44  70 1.46  83 1.48
  79  0.276  0.686  0.517-  39 1.44  71 1.46  90 1.48
  80  0.776  0.186  0.517-  40 1.44  72 1.46  89 1.48
  81  0.724  0.314  0.517-  41 1.44  73 1.46  88 1.48
  82  0.224  0.814  0.517-  42 1.44  74 1.46  87 1.48
  83  0.261  0.319  0.510- 115 1.24  78 1.48  67 1.50
  84  0.761  0.819  0.510- 116 1.24  77 1.48  68 1.50
  85  0.739  0.681  0.510- 117 1.24  76 1.48  69 1.50
  86  0.239  0.181  0.510- 118 1.24  75 1.48  70 1.50
  87  0.181  0.761  0.510- 119 1.24  82 1.48  71 1.50
  88  0.681  0.261  0.510- 120 1.24  81 1.48  72 1.50
  89  0.819  0.239  0.510- 121 1.24  80 1.48  73 1.50
  90  0.319  0.739  0.510- 122 1.24  79 1.48  74 1.50
  91  0.066  0.055  0.516-  27 1.30   1 1.85
  92  0.566  0.555  0.516-  28 1.30   2 1.85
  93  0.434  0.445  0.516-  29 1.30   2 1.85
  94  0.934  0.945  0.516-  30 1.30   1 1.85
  95  0.945  0.066  0.516-  31 1.30   1 1.85
  96  0.445  0.566  0.516-  32 1.30   2 1.85
  97  0.555  0.434  0.516-  33 1.30   2 1.85
  98  0.055  0.934  0.516-  34 1.30   1 1.85
  99  0.051  0.132  0.374-  27 1.21
 100  0.551  0.632  0.374-  28 1.21
 101  0.949  0.868  0.374-  30 1.21
 102  0.449  0.368  0.374-  29 1.21
 103  0.368  0.551  0.374-  32 1.21
 104  0.868  0.051  0.374-  31 1.21
 105  0.632  0.449  0.374-  33 1.21
 106  0.132  0.949  0.374-  34 1.21
 107  0.113  0.143  0.550-  35 1.35  27 1.43
 108  0.613  0.643  0.550-  36 1.35  28 1.43
 109  0.387  0.357  0.550-  38 1.35  29 1.43
 110  0.887  0.857  0.550-  37 1.35  30 1.43
 111  0.857  0.113  0.550-  40 1.35  31 1.43
 112  0.357  0.613  0.550-  39 1.35  32 1.43
 113  0.643  0.387  0.550-  41 1.35  33 1.43
 114  0.143  0.887  0.550-  42 1.35  34 1.43
 115  0.266  0.376  0.502-  83 1.24
 116  0.766  0.876  0.502-  84 1.24
 117  0.734  0.624  0.502-  85 1.24
 118  0.234  0.124  0.502-  86 1.24
 119  0.124  0.766  0.502-  87 1.24
 120  0.624  0.266  0.502-  88 1.24
 121  0.876  0.234  0.502-  89 1.24
 122  0.376  0.734  0.502-  90 1.24
 
  LATTYP: Found a simple tetragonal cell.
 ALAT       =    21.5893820830
 C/A-ratio  =     0.4959104233
  
  Lattice vectors:
  
 A1 = (  15.2659984962, -15.2659984488,   0.0000000000)
 A2 = (  15.2659984488,  15.2659984962,   0.0000000000)
 A3 = (  -0.0000000000,  -0.0000000000,  10.7063996068)


Analysis of symmetry for initial positions (statically):
=====================================================================
 Subroutine PRICEL returns following result:
 
  LATTYP: Found a simple tetragonal cell.
 ALAT       =    15.2659984725
 C/A-ratio  =     0.7013232463
  
  Lattice vectors:
  
 A1 = (   0.0000000237, -15.2659984725,   0.0000000000)
 A2 = (  15.2659984725,   0.0000000237,   0.0000000000)
 A3 = (   0.0000000000,   0.0000000000,  10.7063996068)
 
   2 primitive cells build up your supercell.
 

 Routine SETGRP: Setting up the symmetry group for a 
 simple tetragonal supercell.


 Subroutine GETGRP returns: Found  4 space group operations
 (whereof  4 operations were pure point group operations)
 out of a pool of 16 trial point group operations.


The static configuration has the point symmetry     .


Analysis of symmetry for dynamics (positions and initial velocities):
=====================================================================
 Subroutine PRICEL returns following result:
 
  LATTYP: Found a simple tetragonal cell.
 ALAT       =    15.2659984725
 C/A-ratio  =     0.7013232463
  
  Lattice vectors:
  
 A1 = (   0.0000000237, -15.2659984725,   0.0000000000)
 A2 = (  15.2659984725,   0.0000000237,   0.0000000000)
 A3 = (   0.0000000000,   0.0000000000,  10.7063996068)
 
   2 primitive cells build up your supercell.
 

 Routine SETGRP: Setting up the symmetry group for a 
 simple tetragonal supercell.


 Subroutine GETGRP returns: Found  4 space group operations
 (whereof  4 operations were pure point group operations)
 out of a pool of 16 trial point group operations.


The dynamic configuration has the point symmetry     .


Analysis of structural, dynamic, and magnetic symmetry:
=====================================================================
 Subroutine PRICEL returns:
 Original cell was already a primitive cell.
 

 Routine SETGRP: Setting up the symmetry group for a 
 simple tetragonal supercell.


 Subroutine GETGRP returns: Found  4 space group operations
 (whereof  2 operations were pure point group operations)
 out of a pool of 16 trial point group operations.


The overall configuration has the point symmetry C_2 .
 The point group associated with its full space group is C_2 .


 Subroutine INISYM returns: Found  4 space group operations
 (whereof  2 operations are pure point group operations),
 and found     1 'primitive' translations


----------------------------------------------------------------------------------------

                                     Primitive cell                                     

  volume of cell :    4990.2680

  direct lattice vectors                    reciprocal lattice vectors
    15.265998496-15.265998449  0.000000000     0.032752525 -0.032752525  0.000000000
    15.265998449 15.265998496  0.000000000     0.032752525  0.032752525  0.000000000
    -0.000000000 -0.000000000 10.706399607    -0.000000000 -0.000000000  0.093402081

  length of vectors
    21.589382083 21.589382083 10.706399607     0.046319065  0.046319065  0.093402081

  position of ions in fractional coordinates (direct lattice)
     0.000000000  0.000000000  0.531322198
     0.500000000  0.500000000  0.531322198
     0.025987612  0.227939879  0.518963201
     0.525987612  0.727939879  0.518963201
     0.974012388  0.772060121  0.518963201
     0.474012388  0.272060121  0.518963201
     0.272060121  0.525987612  0.518963201
     0.772060121  0.025987612  0.518963201
     0.727939879  0.474012388  0.518963201
     0.227939879  0.974012388  0.518963201
     0.045958975  0.341780450  0.494507854
     0.545958975  0.841780450  0.494507854
     0.954041025  0.658219550  0.494507854
     0.454041025  0.158219550  0.494507854
     0.158219550  0.545958975  0.494507854
     0.658219550  0.045958975  0.494507854
     0.841780450  0.454041025  0.494507854
     0.341780450  0.954041025  0.494507854
     0.156387819  0.381752739  0.493608767
     0.656387819  0.881752739  0.493608767
     0.843612181  0.618247261  0.493608767
     0.343612181  0.118247261  0.493608767
     0.118247261  0.656387819  0.493608767
     0.618247261  0.156387819  0.493608767
     0.881752739  0.343612181  0.493608767
     0.381752739  0.843612181  0.493608767
     0.071842144  0.109919991  0.469101991
     0.571842144  0.609919991  0.469101991
     0.428157856  0.390080009  0.469101991
     0.928157856  0.890080009  0.469101991
     0.890080009  0.071842144  0.469101991
     0.390080009  0.571842144  0.469101991
     0.609919991  0.428157856  0.469101991
     0.109919991  0.928157856  0.469101991
     0.123117044  0.203689244  0.525003464
     0.623117044  0.703689244  0.525003464
     0.876882956  0.796310756  0.525003464
     0.376882956  0.296310756  0.525003464
     0.296310756  0.623117044  0.525003464
     0.796310756  0.123117044  0.525003464
     0.703689244  0.376882956  0.525003464
     0.203689244  0.876882956  0.525003464
     0.073174604  0.245670452  0.515322032
     0.573174604  0.745670452  0.515322032
     0.926825396  0.754329548  0.515322032
     0.426825396  0.254329548  0.515322032
     0.254329548  0.573174604  0.515322032
     0.754329548  0.073174604  0.515322032
     0.745670452  0.426825396  0.515322032
     0.245670452  0.926825396  0.515322032
     0.084860226  0.309817436  0.501925118
     0.584860226  0.809817436  0.501925118
     0.915139774  0.690182564  0.501925118
     0.415139774  0.190182564  0.501925118
     0.190182564  0.584860226  0.501925118
     0.690182564  0.084860226  0.501925118
     0.809817436  0.415139774  0.501925118
     0.309817436  0.915139774  0.501925118
     0.145982590  0.332513756  0.500652076
     0.645982590  0.832513756  0.500652076
     0.854017410  0.667486244  0.500652076
     0.354017410  0.167486244  0.500652076
     0.167486244  0.645982590  0.500652076
     0.667486244  0.145982590  0.500652076
     0.832513756  0.354017410  0.500652076
     0.332513756  0.854017410  0.500652076
     0.197163229  0.291104327  0.509207138
     0.697163229  0.791104327  0.509207138
     0.802836771  0.708895673  0.509207138
     0.302836771  0.208895673  0.509207138
     0.208895673  0.697163229  0.509207138
     0.708895673  0.197163229  0.509207138
     0.791104327  0.302836771  0.509207138
     0.291104327  0.802836771  0.509207138
     0.186316073  0.224485037  0.517222257
     0.686316073  0.724485037  0.517222257
     0.813683927  0.775514963  0.517222257
     0.313683927  0.275514963  0.517222257
     0.275514963  0.686316073  0.517222257
     0.775514963  0.186316073  0.517222257
     0.724485037  0.313683927  0.517222257
     0.224485037  0.813683927  0.517222257
     0.260572217  0.319069523  0.509937938
     0.760572217  0.819069523  0.509937938
     0.739427783  0.680930477  0.509937938
     0.239427783  0.180930477  0.509937938
     0.180930477  0.760572217  0.509937938
     0.680930477  0.260572217  0.509937938
     0.819069523  0.239427783  0.509937938
     0.319069523  0.739427783  0.509937938
     0.065542700  0.054785898  0.516173152
     0.565542700  0.554785898  0.516173152
     0.434457300  0.445214102  0.516173152
     0.934457300  0.945214102  0.516173152
     0.945214102  0.065542700  0.516173152
     0.445214102  0.565542700  0.516173152
     0.554785898  0.434457300  0.516173152
     0.054785898  0.934457300  0.516173152
     0.051233213  0.132453584  0.374178682
     0.551233213  0.632453584  0.374178682
     0.948766787  0.867546416  0.374178682
     0.448766787  0.367546416  0.374178682
     0.367546416  0.551233213  0.374178682
     0.867546416  0.051233213  0.374178682
     0.632453584  0.448766787  0.374178682
     0.132453584  0.948766787  0.374178682
     0.112658917  0.143100403  0.549610477
     0.612658917  0.643100403  0.549610477
     0.387341083  0.356899597  0.549610477
     0.887341083  0.856899597  0.549610477
     0.856899597  0.112658917  0.549610477
     0.356899597  0.612658917  0.549610477
     0.643100403  0.387341083  0.549610477
     0.143100403  0.887341083  0.549610477
     0.266249608  0.376216844  0.501875304
     0.766249608  0.876216844  0.501875304
     0.733750392  0.623783156  0.501875304
     0.233750392  0.123783156  0.501875304
     0.123783156  0.766249608  0.501875304
     0.623783156  0.266249608  0.501875304
     0.876216844  0.233750392  0.501875304
     0.376216844  0.733750392  0.501875304

  ion indices of the primitive-cell ions
   primitive index   ion index
                 1           1
                 2           2
                 3           3
                 4           4
                 5           5
                 6           6
                 7           7
                 8           8
                 9           9
                10          10
                11          11
                12          12
                13          13
                14          14
                15          15
                16          16
                17          17
                18          18
                19          19
                20          20
                21          21
                22          22
                23          23
                24          24
                25          25
                26          26
                27          27
                28          28
                29          29
                30          30
                31          31
                32          32
                33          33
                34          34
                35          35
                36          36
                37          37
                38          38
                39          39
                40          40
                41          41
                42          42
                43          43
                44          44
                45          45
                46          46
                47          47
                48          48
                49          49
                50          50
                51          51
                52          52
                53          53
                54          54
                55          55
                56          56
                57          57
                58          58
                59          59
                60          60
                61          61
                62          62
                63          63
                64          64
                65          65
                66          66
                67          67
                68          68
                69          69
                70          70
                71          71
                72          72
                73          73
                74          74
                75          75
                76          76
                77          77
                78          78
                79          79
                80          80
                81          81
                82          82
                83          83
                84          84
                85          85
                86          86
                87          87
                88          88
                89          89
                90          90
                91          91
                92          92
                93          93
                94          94
                95          95
                96          96
                97          97
                98          98
                99          99
               100         100
               101         101
               102         102
               103         103
               104         104
               105         105
               106         106
               107         107
               108         108
               109         109
               110         110
               111         111
               112         112
               113         113
               114         114
               115         115
               116         116
               117         117
               118         118
               119         119
               120         120
               121         121
               122         122

----------------------------------------------------------------------------------------

 
 
 KPOINTS: K-Path Generated by VASPKIT.            

Interpolating k-points between supplied coordinates.

 Line segments in fractional coordinates (reciprocal lattice):
    0.000000  0.000000  0.000000  ...  0.500000  0.000000  0.000000
    0.500000  0.000000  0.000000  ...  0.500000  0.500000  0.000000
    0.500000  0.500000  0.000000  ...  0.000000  0.000000  0.000000
    0.000000  0.000000  0.000000  ... -0.500000  0.500000  0.000000
   -0.500000  0.500000  0.000000  ...  0.000000  0.500000  0.000000
    0.000000  0.500000  0.000000  ...  0.000000  0.000000  0.000000

 Generated    10 points on each line segment, for a total of     60 k-points:

 Following reciprocal coordinates:
            Coordinates               Weight
  0.000000  0.000000  0.000000      0.016667
  0.055556  0.000000  0.000000      0.016667
  0.111111  0.000000  0.000000      0.016667
  0.166667  0.000000  0.000000      0.016667
  0.222222  0.000000  0.000000      0.016667
  0.277778  0.000000  0.000000      0.016667
  0.333333  0.000000  0.000000      0.016667
  0.388889  0.000000  0.000000      0.016667
  0.444444  0.000000  0.000000      0.016667
  0.500000  0.000000  0.000000      0.016667
  0.500000  0.000000  0.000000      0.016667
  0.500000  0.055556  0.000000      0.016667
  0.500000  0.111111  0.000000      0.016667
  0.500000  0.166667  0.000000      0.016667
  0.500000  0.222222  0.000000      0.016667
  0.500000  0.277778  0.000000      0.016667
  0.500000  0.333333  0.000000      0.016667
  0.500000  0.388889  0.000000      0.016667
  0.500000  0.444444  0.000000      0.016667
  0.500000  0.500000  0.000000      0.016667
  0.500000  0.500000  0.000000      0.016667
  0.444444  0.444444  0.000000      0.016667
  0.388889  0.388889  0.000000      0.016667
  0.333333  0.333333  0.000000      0.016667
  0.277778  0.277778  0.000000      0.016667
  0.222222  0.222222  0.000000      0.016667
  0.166667  0.166667  0.000000      0.016667
  0.111111  0.111111  0.000000      0.016667
  0.055556  0.055556  0.000000      0.016667
  0.000000  0.000000  0.000000      0.016667
  0.000000  0.000000  0.000000      0.016667
 -0.055556  0.055556  0.000000      0.016667
 -0.111111  0.111111  0.000000      0.016667
 -0.166667  0.166667  0.000000      0.016667
 -0.222222  0.222222  0.000000      0.016667
 -0.277778  0.277778  0.000000      0.016667
 -0.333333  0.333333  0.000000      0.016667
 -0.388889  0.388889  0.000000      0.016667
 -0.444444  0.444444  0.000000      0.016667
 -0.500000  0.500000  0.000000      0.016667
 -0.500000  0.500000  0.000000      0.016667
 -0.444444  0.500000  0.000000      0.016667
 -0.388889  0.500000  0.000000      0.016667
 -0.333333  0.500000  0.000000      0.016667
 -0.277778  0.500000  0.000000      0.016667
 -0.222222  0.500000  0.000000      0.016667
 -0.166667  0.500000  0.000000      0.016667
 -0.111111  0.500000  0.000000      0.016667
 -0.055556  0.500000  0.000000      0.016667
 -0.000000  0.500000  0.000000      0.016667
  0.000000  0.500000  0.000000      0.016667
  0.000000  0.444444  0.000000      0.016667
  0.000000  0.388889  0.000000      0.016667
  0.000000  0.333333  0.000000      0.016667
  0.000000  0.277778  0.000000      0.016667
  0.000000  0.222222  0.000000      0.016667
  0.000000  0.166667  0.000000      0.016667
  0.000000  0.111111  0.000000      0.016667
  0.000000  0.055556  0.000000      0.016667
  0.000000  0.000000  0.000000      0.016667

 Following cartesian coordinates:
            Coordinates               Weight
  0.000000  0.000000  0.000000      0.016667
  0.001820 -0.001820  0.000000      0.016667
  0.003639 -0.003639  0.000000      0.016667
  0.005459 -0.005459  0.000000      0.016667
  0.007278 -0.007278  0.000000      0.016667
  0.009098 -0.009098  0.000000      0.016667
  0.010918 -0.010918  0.000000      0.016667
  0.012737 -0.012737  0.000000      0.016667
  0.014557 -0.014557  0.000000      0.016667
  0.016376 -0.016376  0.000000      0.016667
  0.016376 -0.016376  0.000000      0.016667
  0.018196 -0.014557  0.000000      0.016667
  0.020015 -0.012737  0.000000      0.016667
  0.021835 -0.010918  0.000000      0.016667
  0.023655 -0.009098  0.000000      0.016667
  0.025474 -0.007278  0.000000      0.016667
  0.027294 -0.005459  0.000000      0.016667
  0.029113 -0.003639  0.000000      0.016667
  0.030933 -0.001820  0.000000      0.016667
  0.032753  0.000000  0.000000      0.016667
  0.032753  0.000000  0.000000      0.016667
  0.029113  0.000000  0.000000      0.016667
  0.025474  0.000000  0.000000      0.016667
  0.021835  0.000000  0.000000      0.016667
  0.018196  0.000000  0.000000      0.016667
  0.014557  0.000000  0.000000      0.016667
  0.010918  0.000000  0.000000      0.016667
  0.007278  0.000000  0.000000      0.016667
  0.003639  0.000000  0.000000      0.016667
  0.000000  0.000000  0.000000      0.016667
  0.000000  0.000000  0.000000      0.016667
 -0.000000  0.003639  0.000000      0.016667
 -0.000000  0.007278  0.000000      0.016667
 -0.000000  0.010918  0.000000      0.016667
 -0.000000  0.014557  0.000000      0.016667
 -0.000000  0.018196  0.000000      0.016667
 -0.000000  0.021835  0.000000      0.016667
 -0.000000  0.025474  0.000000      0.016667
 -0.000000  0.029113  0.000000      0.016667
 -0.000000  0.032753  0.000000      0.016667
 -0.000000  0.032753  0.000000      0.016667
  0.001820  0.030933  0.000000      0.016667
  0.003639  0.029113  0.000000      0.016667
  0.005459  0.027294  0.000000      0.016667
  0.007278  0.025474  0.000000      0.016667
  0.009098  0.023655  0.000000      0.016667
  0.010918  0.021835  0.000000      0.016667
  0.012737  0.020015  0.000000      0.016667
  0.014557  0.018196  0.000000      0.016667
  0.016376  0.016376  0.000000      0.016667
  0.016376  0.016376  0.000000      0.016667
  0.014557  0.014557  0.000000      0.016667
  0.012737  0.012737  0.000000      0.016667
  0.010918  0.010918  0.000000      0.016667
  0.009098  0.009098  0.000000      0.016667
  0.007278  0.007278  0.000000      0.016667
  0.005459  0.005459  0.000000      0.016667
  0.003639  0.003639  0.000000      0.016667
  0.001820  0.001820  0.000000      0.016667
  0.000000  0.000000  0.000000      0.016667
 


--------------------------------------------------------------------------------------------------------




 Dimension of arrays:
   k-points           NKPTS =     60   k-points in BZ     NKDIM =     60   number of bands    NBANDS=    312
   number of dos      NEDOS =    301   number of ions     NIONS =    122
   non local maximal  LDIM  =      6   non local SUM 2l+1 LMDIM =     18
   total plane-waves  NPLWV = 864000
   max r-space proj   IRMAX =   1680   max aug-charges    IRDMAX=   6223
   dimension x,y,z NGX =   120 NGY =  120 NGZ =   60
   dimension x,y,z NGXF=   240 NGYF=  240 NGZF=  120
   support grid    NGXF=   240 NGYF=  240 NGZF=  120
   ions per type =               2  24  64  32
   NGX,Y,Z   is equivalent  to a cutoff of   9.24,  9.24,  9.32 a.u.
   NGXF,Y,Z  is equivalent  to a cutoff of  18.48, 18.48, 18.63 a.u.

 SYSTEM =  unknown system                          
 POSCAR =  Cr2 H24 C64 O32                         

 Startparameter for this run:
   NWRITE =      2    write-flag & timer
   PREC   = normal    normal or accurate (medium, high low for compatibility)
   ISTART =      0    job   : 0-new  1-cont  2-samecut
   ICHARG =     11    charge: 1-file 2-atom 10-const
   ISPIN  =      2    spin polarized calculation?
   LNONCOLLINEAR =      F non collinear calculations
   LSORBIT =      F    spin-orbit coupling
   INIWAV =      1    electr: 0-lowe 1-rand  2-diag
   LASPH  =      F    aspherical Exc in radial PAW
 Electronic Relaxation 1
   ENCUT  =  500.0 eV  36.75 Ry    6.06 a.u.  39.36 39.36 19.52*2*pi/ulx,y,z
   ENINI  =  500.0     initial cutoff
   ENAUG  =  644.9 eV  augmentation charge cutoff
   NELM   =    200;   NELMIN=  2; NELMDL=  0     # of ELM steps 
   EDIFF  = 0.1E-04   stopping-criterion for ELM
   LREAL  =      T    real-space projection
   NLSPLINE    = F    spline interpolate recip. space projectors
   LCOMPAT=      F    compatible to vasp.4.4
   GGA_COMPAT  = T    GGA compatible to vasp.4.4-vasp.4.6
   LMAXPAW     = -100 max onsite density
   LMAXMIX     =    4 max onsite mixed and CHGCAR
   VOSKOWN=      0    Vosko Wilk Nusair interpolation
   ROPT   =   -0.00050  -0.00050  -0.00050  -0.00050
 Ionic relaxation
   EDIFFG = -.1E-01   stopping-criterion for IOM
   NSW    =      0    number of steps for IOM
   NBLOCK =      1;   KBLOCK =      1    inner block; outer block 
   IBRION =     -1    ionic relax: 0-MD 1-quasi-New 2-CG
   NFREE  =      0    steps in history (QN), initial steepest desc. (CG)
   ISIF   =      2    stress and relaxation
   IWAVPR =     10    prediction:  0-non 1-charg 2-wave 3-comb
   ISYM   =      2    0-nonsym 1-usesym 2-fastsym
   LCORR  =      T    Harris-Foulkes like correction to forces

   POTIM  = 0.5000    time-step for ionic-motion
   TEIN   =    0.0    initial temperature
   TEBEG  =    0.0;   TEEND  =   0.0 temperature during run
   SMASS  =  -3.00    Nose mass-parameter (am)
   estimated Nose-frequenzy (Omega)   =  0.10E-29 period in steps = 0.13E+47 mass=  -0.107E-25a.u.
   SCALEE = 1.0000    scale energy and forces
   NPACO  =    256;   APACO  = 10.0  distance and # of slots for P.C.
   PSTRESS=    0.0 pullay stress

  Mass of Ions in am
   POMASS =  52.00  1.00 12.01 16.00
  Ionic Valenz
   ZVAL   =  12.00  1.00  4.00  6.00
  Atomic Wigner-Seitz radii
   RWIGS  =  -1.00 -1.00 -1.00 -1.00
  virtual crystal weights 
   VCA    =   1.00  1.00  1.00  1.00
   NELECT =     496.0000    total number of electrons
   NUPDOWN=      -1.0000    fix difference up-down

 DOS related values:
   EMIN   =  10.00;   EMAX   =-10.00  energy-range for DOS
   EFERMI =   0.00
   ISMEAR =     1;   SIGMA  =   0.20  broadening in eV -4-tet -1-fermi 0-gaus

 Electronic relaxation 2 (details)
   IALGO  =     68    algorithm
   LDIAG  =      T    sub-space diagonalisation (order eigenvalues)
   LSUBROT=      F    optimize rotation matrix (better conditioning)
   TURBO    =      0    0=normal 1=particle mesh
   IRESTART =      0    0=no restart 2=restart with 2 vectors
   NREBOOT  =      0    no. of reboots
   NMIN     =      0    reboot dimension
   EREF     =   0.00    reference energy to select bands
   IMIX   =      4    mixing-type and parameters
     AMIX     =   0.20;   BMIX     =  0.00
     AMIX_MAG =   0.80;   BMIX_MAG =  0.00
     AMIN     =   0.10
     WC   =   100.;   INIMIX=   1;  MIXPRE=   1;  MAXMIX= -45

 Intra band minimization:
   WEIMIN = 0.0000     energy-eigenvalue tresh-hold
   EBREAK =  0.80E-08  absolut break condition
   DEPER  =   0.30     relativ break condition  

   TIME   =   0.40     timestep for ELM

  volume/ion in A,a.u.               =      40.90       276.03
  Fermi-wavevector in a.u.,A,eV,Ry     =   0.758334  1.433044  7.824317  0.575071
  Thomas-Fermi vector in A             =   1.856882
 
 Write flags
   LWAVE        =      F    write WAVECAR
   LDOWNSAMPLE  =      F    k-point downsampling of WAVECAR
   LCHARG       =      F    write CHGCAR
   LVTOT        =      T    write LOCPOT, total local potential
   LVHAR        =      F    write LOCPOT, Hartree potential only
   LELF         =      F    write electronic localiz. function (ELF)
   LORBIT       =     11    0 simple, 1 ext, 2 COOP (PROOUT), +10 PAW based schemes


 Dipole corrections
   LMONO  =      F    monopole corrections only (constant potential shift)
   LDIPOL =      F    correct potential (dipole corrections)
   IDIPOL =      0    1-x, 2-y, 3-z, 4-all directions 
   EPSILON=  1.0000000 bulk dielectric constant

 LDA+U is selected, type is set to LDAUTYPE =  2
   angular momentum for each species LDAUL =     2   -1   -1   -1
   U (eV)           for each species LDAUU =   3.0  0.0  0.0  0.0
   J (eV)           for each species LDAUJ =   1.0  0.0  0.0  0.0
 Exchange correlation treatment:
   GGA     =    --    GGA type
   LEXCH   =     8    internal setting for exchange type
   LIBXC   =     F    Libxc                    
   VOSKOWN =     0    Vosko Wilk Nusair interpolation
   LHFCALC =     F    Hartree Fock is set to
   LHFONE  =     F    Hartree Fock one center treatment
   AEXX    =    0.0000 exact exchange contribution

 Linear response parameters
   LEPSILON=     F    determine dielectric tensor
   LRPA    =     F    only Hartree local field effects (RPA)
   LNABLA  =     F    use nabla operator in PAW spheres
   LVEL    =     F    velocity operator in full k-point grid
   CSHIFT  =0.1000    complex shift for real part using Kramers Kronig
   OMEGAMAX=  -1.0    maximum frequency
   DEG_THRESHOLD= 0.2000000E-02 threshold for treating states as degnerate
   RTIME   =   -0.100 relaxation time in fs
  (WPLASMAI=    0.000 imaginary part of plasma frequency in eV, 0.658/RTIME)
   DFIELD  = 0.0000000 0.0000000 0.0000000 field for delta impulse in time
 
  Optional k-point grid parameters
   LKPOINTS_OPT  =     F    use optional k-point grid
   KPOINTS_OPT_MODE=     1    mode for optional k-point grid
 
 Orbital magnetization related:
   ORBITALMAG=     F  switch on orbital magnetization
   LCHIMAG   =     F  perturbation theory with respect to B field
   DQ        =  0.001000  dq finite difference perturbation B field
   LLRAUG    =     F  two centre corrections for induced B field



--------------------------------------------------------------------------------------------------------


 Static calculation
 charge density and potential remain constant during run
 spin polarized calculation
 RMM-DIIS sequential band-by-band and
  variant of blocked Davidson during initial phase
 perform sub-space diagonalisation
    before iterative eigenvector-optimisation
 no mixing
 using additional bands           64
 real space projection scheme for non local part
 use partial core corrections
 calculate Harris-corrections to forces 
   (improved forces if not selfconsistent)
 use gradient corrections 
 WARNING: stress and forces are not correct
  (second derivative of E(xc) not defined)
 use of overlap-Matrix (Vanderbilt PP)
 Methfessel and Paxton  Order N= 1 SIGMA  =   0.20


--------------------------------------------------------------------------------------------------------


  energy-cutoff  :      500.00
  volume of cell :     4990.27
      direct lattice vectors                 reciprocal lattice vectors
    15.265998496-15.265998449  0.000000000     0.032752525 -0.032752525  0.000000000
    15.265998449 15.265998496  0.000000000     0.032752525  0.032752525  0.000000000
    -0.000000000 -0.000000000 10.706399607    -0.000000000 -0.000000000  0.093402081

  length of vectors
    21.589382083 21.589382083 10.706399607     0.046319065  0.046319065  0.093402081


 
 k-points in units of 2pi/SCALE and weight: K-Path Generated by VASPKIT.            
   0.00000000  0.00000000  0.00000000       0.017
   0.00181958 -0.00181958  0.00000000       0.017
   0.00363917 -0.00363917  0.00000000       0.017
   0.00545875 -0.00545875  0.00000000       0.017
   0.00727834 -0.00727834  0.00000000       0.017
   0.00909792 -0.00909792  0.00000000       0.017
   0.01091751 -0.01091751  0.00000000       0.017
   0.01273709 -0.01273709  0.00000000       0.017
   0.01455668 -0.01455668  0.00000000       0.017
   0.01637626 -0.01637626  0.00000000       0.017
   0.01637626 -0.01637626  0.00000000       0.017
   0.01819585 -0.01455668  0.00000000       0.017
   0.02001543 -0.01273709  0.00000000       0.017
   0.02183502 -0.01091751  0.00000000       0.017
   0.02365460 -0.00909792  0.00000000       0.017
   0.02547419 -0.00727834  0.00000000       0.017
   0.02729377 -0.00545875  0.00000000       0.017
   0.02911336 -0.00363917  0.00000000       0.017
   0.03093294 -0.00181958  0.00000000       0.017
   0.03275253  0.00000000  0.00000000       0.017
   0.03275253  0.00000000  0.00000000       0.017
   0.02911336  0.00000000  0.00000000       0.017
   0.02547419  0.00000000  0.00000000       0.017
   0.02183502  0.00000000  0.00000000       0.017
   0.01819585  0.00000000  0.00000000       0.017
   0.01455668  0.00000000  0.00000000       0.017
   0.01091751  0.00000000  0.00000000       0.017
   0.00727834  0.00000000  0.00000000       0.017
   0.00363917  0.00000000  0.00000000       0.017
   0.00000000  0.00000000  0.00000000       0.017
   0.00000000  0.00000000  0.00000000       0.017
  -0.00000000  0.00363917  0.00000000       0.017
  -0.00000000  0.00727834  0.00000000       0.017
  -0.00000000  0.01091751  0.00000000       0.017
  -0.00000000  0.01455668  0.00000000       0.017
  -0.00000000  0.01819585  0.00000000       0.017
  -0.00000000  0.02183502  0.00000000       0.017
  -0.00000000  0.02547419  0.00000000       0.017
  -0.00000000  0.02911336  0.00000000       0.017
  -0.00000000  0.03275253  0.00000000       0.017
  -0.00000000  0.03275253  0.00000000       0.017
   0.00181958  0.03093294  0.00000000       0.017
   0.00363917  0.02911336  0.00000000       0.017
   0.00545875  0.02729377  0.00000000       0.017
   0.00727834  0.02547419  0.00000000       0.017
   0.00909792  0.02365460  0.00000000       0.017
   0.01091751  0.02183502  0.00000000       0.017
   0.01273709  0.02001543  0.00000000       0.017
   0.01455668  0.01819585  0.00000000       0.017
   0.01637626  0.01637626  0.00000000       0.017
   0.01637626  0.01637626  0.00000000       0.017
   0.01455668  0.01455668  0.00000000       0.017
   0.01273709  0.01273709  0.00000000       0.017
   0.01091751  0.01091751  0.00000000       0.017
   0.00909792  0.00909792  0.00000000       0.017
   0.00727834  0.00727834  0.00000000       0.017
   0.00545875  0.00545875  0.00000000       0.017
   0.00363917  0.00363917  0.00000000       0.017
   0.00181958  0.00181958  0.00000000       0.017
   0.00000000  0.00000000  0.00000000       0.017
 
 k-points in reciprocal lattice and weights: K-Path Generated by VASPKIT.            
   0.00000000  0.00000000  0.00000000       0.017
   0.05555556  0.00000000  0.00000000       0.017
   0.11111111  0.00000000  0.00000000       0.017
   0.16666667  0.00000000  0.00000000       0.017
   0.22222222  0.00000000  0.00000000       0.017
   0.27777778  0.00000000  0.00000000       0.017
   0.33333333  0.00000000  0.00000000       0.017
   0.38888889  0.00000000  0.00000000       0.017
   0.44444444  0.00000000  0.00000000       0.017
   0.50000000  0.00000000  0.00000000       0.017
   0.50000000  0.00000000  0.00000000       0.017
   0.50000000  0.05555556  0.00000000       0.017
   0.50000000  0.11111111  0.00000000       0.017
   0.50000000  0.16666667  0.00000000       0.017
   0.50000000  0.22222222  0.00000000       0.017
   0.50000000  0.27777778  0.00000000       0.017
   0.50000000  0.33333333  0.00000000       0.017
   0.50000000  0.38888889  0.00000000       0.017
   0.50000000  0.44444444  0.00000000       0.017
   0.50000000  0.50000000  0.00000000       0.017
   0.50000000  0.50000000  0.00000000       0.017
   0.44444444  0.44444444  0.00000000       0.017
   0.38888889  0.38888889  0.00000000       0.017
   0.33333333  0.33333333  0.00000000       0.017
   0.27777778  0.27777778  0.00000000       0.017
   0.22222222  0.22222222  0.00000000       0.017
   0.16666667  0.16666667  0.00000000       0.017
   0.11111111  0.11111111  0.00000000       0.017
   0.05555556  0.05555556  0.00000000       0.017
   0.00000000  0.00000000  0.00000000       0.017
   0.00000000  0.00000000  0.00000000       0.017
  -0.05555556  0.05555556  0.00000000       0.017
  -0.11111111  0.11111111  0.00000000       0.017
  -0.16666667  0.16666667  0.00000000       0.017
  -0.22222222  0.22222222  0.00000000       0.017
  -0.27777778  0.27777778  0.00000000       0.017
  -0.33333333  0.33333333  0.00000000       0.017
  -0.38888889  0.38888889  0.00000000       0.017
  -0.44444444  0.44444444  0.00000000       0.017
  -0.50000000  0.50000000  0.00000000       0.017
  -0.50000000  0.50000000  0.00000000       0.017
  -0.44444444  0.50000000  0.00000000       0.017
  -0.38888889  0.50000000  0.00000000       0.017
  -0.33333333  0.50000000  0.00000000       0.017
  -0.27777778  0.50000000  0.00000000       0.017
  -0.22222222  0.50000000  0.00000000       0.017
  -0.16666667  0.50000000  0.00000000       0.017
  -0.11111111  0.50000000  0.00000000       0.017
  -0.05555556  0.50000000  0.00000000       0.017
  -0.00000000  0.50000000  0.00000000       0.017
   0.00000000  0.50000000  0.00000000       0.017
   0.00000000  0.44444444  0.00000000       0.017
   0.00000000  0.38888889  0.00000000       0.017
   0.00000000  0.33333333  0.00000000       0.017
   0.00000000  0.27777778  0.00000000       0.017
   0.00000000  0.22222222  0.00000000       0.017
   0.00000000  0.16666667  0.00000000       0.017
   0.00000000  0.11111111  0.00000000       0.017
   0.00000000  0.05555556  0.00000000       0.017
   0.00000000  0.00000000  0.00000000       0.017
 
 position of ions in fractional coordinates (direct lattice) 
   0.00000000  0.00000000  0.53132220
   0.50000000  0.50000000  0.53132220
   0.02598761  0.22793988  0.51896320
   0.52598761  0.72793988  0.51896320
   0.97401239  0.77206012  0.51896320
   0.47401239  0.27206012  0.51896320
   0.27206012  0.52598761  0.51896320
   0.77206012  0.02598761  0.51896320
   0.72793988  0.47401239  0.51896320
   0.22793988  0.97401239  0.51896320
   0.04595898  0.34178045  0.49450785
   0.54595898  0.84178045  0.49450785
   0.95404102  0.65821955  0.49450785
   0.45404102  0.15821955  0.49450785
   0.15821955  0.54595898  0.49450785
   0.65821955  0.04595898  0.49450785
   0.84178045  0.45404102  0.49450785
   0.34178045  0.95404102  0.49450785
   0.15638782  0.38175274  0.49360877
   0.65638782  0.88175274  0.49360877
   0.84361218  0.61824726  0.49360877
   0.34361218  0.11824726  0.49360877
   0.11824726  0.65638782  0.49360877
   0.61824726  0.15638782  0.49360877
   0.88175274  0.34361218  0.49360877
   0.38175274  0.84361218  0.49360877
   0.07184214  0.10991999  0.46910199
   0.57184214  0.60991999  0.46910199
   0.42815786  0.39008001  0.46910199
   0.92815786  0.89008001  0.46910199
   0.89008001  0.07184214  0.46910199
   0.39008001  0.57184214  0.46910199
   0.60991999  0.42815786  0.46910199
   0.10991999  0.92815786  0.46910199
   0.12311704  0.20368924  0.52500346
   0.62311704  0.70368924  0.52500346
   0.87688296  0.79631076  0.52500346
   0.37688296  0.29631076  0.52500346
   0.29631076  0.62311704  0.52500346
   0.79631076  0.12311704  0.52500346
   0.70368924  0.37688296  0.52500346
   0.20368924  0.87688296  0.52500346
   0.07317460  0.24567045  0.51532203
   0.57317460  0.74567045  0.51532203
   0.92682540  0.75432955  0.51532203
   0.42682540  0.25432955  0.51532203
   0.25432955  0.57317460  0.51532203
   0.75432955  0.07317460  0.51532203
   0.74567045  0.42682540  0.51532203
   0.24567045  0.92682540  0.51532203
   0.08486023  0.30981744  0.50192512
   0.58486023  0.80981744  0.50192512
   0.91513977  0.69018256  0.50192512
   0.41513977  0.19018256  0.50192512
   0.19018256  0.58486023  0.50192512
   0.69018256  0.08486023  0.50192512
   0.80981744  0.41513977  0.50192512
   0.30981744  0.91513977  0.50192512
   0.14598259  0.33251376  0.50065208
   0.64598259  0.83251376  0.50065208
   0.85401741  0.66748624  0.50065208
   0.35401741  0.16748624  0.50065208
   0.16748624  0.64598259  0.50065208
   0.66748624  0.14598259  0.50065208
   0.83251376  0.35401741  0.50065208
   0.33251376  0.85401741  0.50065208
   0.19716323  0.29110433  0.50920714
   0.69716323  0.79110433  0.50920714
   0.80283677  0.70889567  0.50920714
   0.30283677  0.20889567  0.50920714
   0.20889567  0.69716323  0.50920714
   0.70889567  0.19716323  0.50920714
   0.79110433  0.30283677  0.50920714
   0.29110433  0.80283677  0.50920714
   0.18631607  0.22448504  0.51722226
   0.68631607  0.72448504  0.51722226
   0.81368393  0.77551496  0.51722226
   0.31368393  0.27551496  0.51722226
   0.27551496  0.68631607  0.51722226
   0.77551496  0.18631607  0.51722226
   0.72448504  0.31368393  0.51722226
   0.22448504  0.81368393  0.51722226
   0.26057222  0.31906952  0.50993794
   0.76057222  0.81906952  0.50993794
   0.73942778  0.68093048  0.50993794
   0.23942778  0.18093048  0.50993794
   0.18093048  0.76057222  0.50993794
   0.68093048  0.26057222  0.50993794
   0.81906952  0.23942778  0.50993794
   0.31906952  0.73942778  0.50993794
   0.06554270  0.05478590  0.51617315
   0.56554270  0.55478590  0.51617315
   0.43445730  0.44521410  0.51617315
   0.93445730  0.94521410  0.51617315
   0.94521410  0.06554270  0.51617315
   0.44521410  0.56554270  0.51617315
   0.55478590  0.43445730  0.51617315
   0.05478590  0.93445730  0.51617315
   0.05123321  0.13245358  0.37417868
   0.55123321  0.63245358  0.37417868
   0.94876679  0.86754642  0.37417868
   0.44876679  0.36754642  0.37417868
   0.36754642  0.55123321  0.37417868
   0.86754642  0.05123321  0.37417868
   0.63245358  0.44876679  0.37417868
   0.13245358  0.94876679  0.37417868
   0.11265892  0.14310040  0.54961048
   0.61265892  0.64310040  0.54961048
   0.38734108  0.35689960  0.54961048
   0.88734108  0.85689960  0.54961048
   0.85689960  0.11265892  0.54961048
   0.35689960  0.61265892  0.54961048
   0.64310040  0.38734108  0.54961048
   0.14310040  0.88734108  0.54961048
   0.26624961  0.37621684  0.50187530
   0.76624961  0.87621684  0.50187530
   0.73375039  0.62378316  0.50187530
   0.23375039  0.12378316  0.50187530
   0.12378316  0.76624961  0.50187530
   0.62378316  0.26624961  0.50187530
   0.87621684  0.23375039  0.50187530
   0.37621684  0.73375039  0.50187530
 
 position of ions in cartesian coordinates  (Angst):
  -0.00000000 -0.00000000  5.68854777
  15.26599847  0.00000002  5.68854777
   3.87645669  3.08300299  5.55622742
  19.14245516  3.08300302  5.55622742
  26.65554026 -3.08300294  5.55622742
  11.38954179 -3.08300297  5.55622742
  12.18299548  3.87645671  5.55622742
  12.18299550-11.38954176  5.55622742
  18.34900146 -3.87645666  5.55622742
  18.34900144 11.38954181  5.55622742
   5.91922947  4.51601020  5.29439869
  21.18522794  4.51601022  5.29439869
  24.61276747 -4.51601015  5.29439869
   9.34676900 -4.51601017  5.29439869
  10.74998828  5.91922950  5.29439869
  10.74998830 -9.34676898  5.29439869
  19.78200867 -5.91922945  5.29439869
  19.78200864  9.34676902  5.29439869
   8.21525292  3.44042054  5.28477271
  23.48125140  3.44042057  5.28477271
  22.31674402 -3.44042050  5.28477271
   7.05074555 -3.44042052  5.28477271
  11.82557793  8.21525295  5.28477271
  11.82557795 -7.05074553  5.28477271
  18.70641902 -8.21525290  5.28477271
  18.70641899  7.05074557  5.28477271
   2.77478047  0.58129635  5.02239337
  18.04077894  0.58129638  5.02239337
  12.49121800 -0.58129633  5.02239337
  27.75721648 -0.58129630  5.02239337
  14.68470214-12.49121798  5.02239337
  14.68470212  2.77478049  5.02239337
  15.84729482 -2.77478045  5.02239337
  15.84729480 12.49121803  5.02239337
   4.98902428  1.23001509  5.62089688
  20.25502275  1.23001511  5.62089688
  25.54297266 -1.23001504  5.62089688
  10.27697419 -1.23001506  5.62089688
  14.03598339  4.98902431  5.62089688
  14.03598341-10.27697417  5.62089688
  16.49601356 -4.98902426  5.62089688
  16.49601353 10.27697421  5.62089688
   4.86748813  2.63332136  5.51724360
  20.13348660  2.63332138  5.51724360
  25.66450882 -2.63332131  5.51724360
  10.39851034 -2.63332134  5.51724360
  12.63267711  4.86748815  5.51724360
  12.63267714-10.39851032  5.51724360
  17.89931983 -4.86748811  5.51724360
  17.89931981 10.39851037  5.51724360
   6.02514858  3.43419642  5.37381089
  21.29114705  3.43419644  5.37381089
  24.50684836 -3.43419637  5.37381089
   9.24084989 -3.43419640  5.37381089
  11.83180205  6.02514860  5.37381089
  11.83180208 -9.24084987  5.37381089
  18.70019489 -6.02514856  5.37381089
  18.70019487  9.24084992  5.37381089
   7.30472449  2.84758451  5.36018119
  22.57072296  2.84758453  5.36018119
  23.22727246 -2.84758446  5.36018119
   7.96127399 -2.84758448  5.36018119
  12.41841397  7.30472451  5.36018119
  12.41841399 -7.96127396  5.36018119
  18.11358298 -7.30472446  5.36018119
  18.11358295  7.96127401  5.36018119
   7.45389176  1.43410467  5.45177510
  22.71989023  1.43410469  5.45177510
  23.07810519 -1.43410462  5.45177510
   7.81210672 -1.43410464  5.45177510
  13.83189381  7.45389178  5.45177510
  13.83189383 -7.81210669  5.45177510
  16.70010314 -7.45389173  5.45177510
  16.70010312  7.81210674  5.45177510
   6.27128911  0.58268735  5.53758817
  21.53728758  0.58268738  5.53758817
  24.26070783 -0.58268731  5.53758817
   8.99470936 -0.58268733  5.53758817
  14.68331112  6.27128914  5.53758817
  14.68331114 -8.99470934  5.53758817
  15.84868582 -6.27128909  5.53758817
  15.84868580  8.99470938  5.53758817
   8.84880992  0.89301980  5.45959934
  24.11480839  0.89301982  5.45959934
  21.68318703 -0.89301975  5.45959934
   6.41718856 -0.89301978  5.45959934
  14.37297867  8.84880994  5.45959934
  14.37297870 -6.41718853  5.45959934
  16.15901827 -8.84880989  5.45959934
  16.15901825  6.41718858  5.45959934
   1.83693620 -0.16421331  5.52635603
  17.10293467 -0.16421329  5.52635603
  13.42906228  0.16421334  5.52635603
  28.69506075  0.16421336  5.52635603
  15.43021181-13.42906225  5.52635603
  15.43021178  1.83693622  5.52635603
  15.10178516 -1.83693617  5.52635603
  15.10178514 13.42906230  5.52635603
   2.80416236  1.23991007  4.00610649
  18.07016083  1.23991009  4.00610649
  27.72783458 -1.23991002  4.00610649
  12.46183611 -1.23991005  4.00610649
  14.02608840  2.80416239  4.00610649
  14.02608843-12.46183609  4.00610649
  16.50590854 -2.80416234  4.00610649
  16.50590852 12.46183613  4.00610649
   3.90442139  0.46471970  5.88434940
  19.17041986  0.46471972  5.88434940
  11.36157708 -0.46471967  5.88434940
  26.62757556 -0.46471965  5.88434940
  14.80127880-11.36157706  5.88434940
  14.80127877  3.90442141  5.88434940
  15.73071817 -3.90442137  5.88434940
  15.73071815 11.36157711  5.88434940
   9.80789188  1.67875967  5.37327755
  25.07389035  1.67875969  5.37327755
  20.72410507 -1.67875962  5.37327755
   5.45810659 -1.67875964  5.37327755
  13.58723881  9.80789190  5.37327755
  13.58723883 -5.45810657  5.37327755
  16.94475814 -9.80789185  5.37327755
  16.94475811  5.45810662  5.37327755
 


--------------------------------------------------------------------------------------------------------


 k-point   1 :   0.0000 0.0000 0.0000  plane waves:  126623
 k-point   2 :   0.0556 0.0000 0.0000  plane waves:  126677
 k-point   3 :   0.1111 0.0000 0.0000  plane waves:  126731
 k-point   4 :   0.1667 0.0000 0.0000  plane waves:  126751
 k-point   5 :   0.2222 0.0000 0.0000  plane waves:  126765
 k-point   6 :   0.2778 0.0000 0.0000  plane waves:  126789
 k-point   7 :   0.3333 0.0000 0.0000  plane waves:  126775
 k-point   8 :   0.3889 0.0000 0.0000  plane waves:  126744
 k-point   9 :   0.4444 0.0000 0.0000  plane waves:  126740
 k-point  10 :   0.5000 0.0000 0.0000  plane waves:  126742
 k-point  11 :   0.5000 0.0000 0.0000  plane waves:  126742
 k-point  12 :   0.5000 0.0556 0.0000  plane waves:  126748
 k-point  13 :   0.5000 0.1111 0.0000  plane waves:  126740
 k-point  14 :   0.5000 0.1667 0.0000  plane waves:  126758
 k-point  15 :   0.5000 0.2222 0.0000  plane waves:  126746
 k-point  16 :   0.5000 0.2778 0.0000  plane waves:  126730
 k-point  17 :   0.5000 0.3333 0.0000  plane waves:  126662
 k-point  18 :   0.5000 0.3889 0.0000  plane waves:  126658
 k-point  19 :   0.5000 0.4444 0.0000  plane waves:  126636
 k-point  20 :   0.5000 0.5000 0.0000  plane waves:  126640
 k-point  21 :   0.5000 0.5000 0.0000  plane waves:  126640
 k-point  22 :   0.4444 0.4444 0.0000  plane waves:  126648
 k-point  23 :   0.3889 0.3889 0.0000  plane waves:  126666
 k-point  24 :   0.3333 0.3333 0.0000  plane waves:  126738
 k-point  25 :   0.2778 0.2778 0.0000  plane waves:  126736
 k-point  26 :   0.2222 0.2222 0.0000  plane waves:  126746
 k-point  27 :   0.1667 0.1667 0.0000  plane waves:  126702
 k-point  28 :   0.1111 0.1111 0.0000  plane waves:  126721
 k-point  29 :   0.0556 0.0556 0.0000  plane waves:  126689
 k-point  30 :   0.0000 0.0000 0.0000  plane waves:  126623
 k-point  31 :   0.0000 0.0000 0.0000  plane waves:  126623
 k-point  32 :  -0.0556 0.0556 0.0000  plane waves:  126689
 k-point  33 :  -0.1111 0.1111 0.0000  plane waves:  126721
 k-point  34 :  -0.1667 0.1667 0.0000  plane waves:  126702
 k-point  35 :  -0.2222 0.2222 0.0000  plane waves:  126746
 k-point  36 :  -0.2778 0.2778 0.0000  plane waves:  126736
 k-point  37 :  -0.3333 0.3333 0.0000  plane waves:  126738
 k-point  38 :  -0.3889 0.3889 0.0000  plane waves:  126666
 k-point  39 :  -0.4444 0.4444 0.0000  plane waves:  126648
 k-point  40 :  -0.5000 0.5000 0.0000  plane waves:  126640
 k-point  41 :  -0.5000 0.5000 0.0000  plane waves:  126640
 k-point  42 :  -0.4444 0.5000 0.0000  plane waves:  126636
 k-point  43 :  -0.3889 0.5000 0.0000  plane waves:  126658
 k-point  44 :  -0.3333 0.5000 0.0000  plane waves:  126662
 k-point  45 :  -0.2778 0.5000 0.0000  plane waves:  126730
 k-point  46 :  -0.2222 0.5000 0.0000  plane waves:  126746
 k-point  47 :  -0.1667 0.5000 0.0000  plane waves:  126758
 k-point  48 :  -0.1111 0.5000 0.0000  plane waves:  126740
 k-point  49 :  -0.0556 0.5000 0.0000  plane waves:  126748
 k-point  50 :  -0.0000 0.5000 0.0000  plane waves:  126742
 k-point  51 :   0.0000 0.5000 0.0000  plane waves:  126742
 k-point  52 :   0.0000 0.4444 0.0000  plane waves:  126740
 k-point  53 :   0.0000 0.3889 0.0000  plane waves:  126744
 k-point  54 :   0.0000 0.3333 0.0000  plane waves:  126775
 k-point  55 :   0.0000 0.2778 0.0000  plane waves:  126789
 k-point  56 :   0.0000 0.2222 0.0000  plane waves:  126765
 k-point  57 :   0.0000 0.1667 0.0000  plane waves:  126751
 k-point  58 :   0.0000 0.1111 0.0000  plane waves:  126731
 k-point  59 :   0.0000 0.0556 0.0000  plane waves:  126677
 k-point  60 :   0.0000 0.0000 0.0000  plane waves:  126623

 maximum and minimum number of plane-waves per node :     10598    10499

 maximum number of plane-waves:    126789
 maximum index in each direction: 
   IXMAX=   39   IYMAX=   39   IZMAX=   19
   IXMIN=  -39   IYMIN=  -39   IZMIN=  -19


 real space projection operators:
  total allocation   :       5768.03 KBytes
  max/ min on nodes  :        503.47        462.47


 parallel 3D FFT for wavefunctions:
    minimum data exchange during FFTs selected (reduces bandwidth)
 parallel 3D FFT for charge:
    minimum data exchange during FFTs selected (reduces bandwidth)


 total amount of memory used by VASP MPI-rank0  1674749. kBytes
=======================================================================

   base      :      30000. kBytes
   nonlr-proj:       3974. kBytes
   fftplans  :      12243. kBytes
   grid      :      29952. kBytes
   one-center:        342. kBytes
   wavefun   :    1598238. kBytes
 
     INWAV:  cpu time      0.0000: real time      0.0000
 initial charge density was supplied:
 number of electron     496.0000376 magnetization       0.0000000
 keeping initial charge density in first step


--------------------------------------------------------------------------------------------------------


 Maximum index for non-local projection operator          167
 Maximum index for augmentation-charges          394 (set IRDMAX)


--------------------------------------------------------------------------------------------------------


 First call to EWALD:  gamma=   0.104
 Maximum number of real-space cells 2x 2x 4
 Maximum number of reciprocal cells 3x 3x 2

    FEWALD:  cpu time      0.0095: real time      0.0097


--------------------------------------- Iteration      1(   1)  ---------------------------------------


    POTLOK:  cpu time      0.2397: real time      0.2437
    SETDIJ:  cpu time      0.0358: real time      0.0387
     EDDAV:  cpu time    240.5653: real time    240.7314
       DOS:  cpu time      0.0213: real time      0.0221
    --------------------------------------------
      LOOP:  cpu time    240.8622: real time    241.0359

 eigenvalue-minimisations  : 82568
 total energy-change (2. order) : 0.4057510E+04  (-0.1842843E+05)
 number of electron     496.0000376 magnetization       0.0000000
 augmentation part      496.0000376 magnetization       0.0000000

 Free energy of the ion-electron system (eV)
  ---------------------------------------------------
  alpha Z        PSCENC =       227.42508524
  Ewald energy   TEWEN  =     25483.53490487
  -Hartree energ DENC   =    -48588.38082802
  -exchange      EXHF   =         0.00000000
  -V(xc)+E(xc)   XCENC  =      1952.38743550
  PAW double counting   =     44982.22997978   -45186.26923391
  entropy T*S    EENTRO =         0.00187902
  eigenvalues    EBANDS =     -1661.82181918
  atomic energy  EATOM  =     26848.40232857
  Solvation  Ediel_sol  =         0.00000000
  ---------------------------------------------------
  free energy    TOTEN  =      4057.50973187 eV

  energy without entropy =     4057.50785286  energy(sigma->0) =     4057.50910554


--------------------------------------------------------------------------------------------------------




--------------------------------------- Iteration      1(   2)  ---------------------------------------


[...]
     14.03598      4.98902      5.62090        -0.353772      1.293187     -0.181351
     14.03598    -10.27697      5.62090        -0.349261      1.294678     -0.180731
     16.49601     -4.98902      5.62090         0.353772     -1.293187     -0.181351
     16.49601     10.27697      5.62090         0.349261     -1.294678     -0.180731
      4.86749      2.63332      5.51724         0.908474     -0.025081     -0.057376
     20.13349      2.63332      5.51724         0.908757     -0.025303     -0.056759
     25.66451     -2.63332      5.51724        -0.908474      0.025081     -0.057376
     10.39851     -2.63332      5.51724        -0.908757      0.025303     -0.056759
     12.63268      4.86749      5.51724         0.025081      0.908474     -0.057376
     12.63268    -10.39851      5.51724         0.025303      0.908757     -0.056759
     17.89932     -4.86749      5.51724        -0.025081     -0.908474     -0.057376
     17.89932     10.39851      5.51724        -0.025303     -0.908757     -0.056759
      6.02515      3.43420      5.37381        -0.133949     -0.860968      0.108113
     21.29115      3.43420      5.37381        -0.135134     -0.860941      0.108188
     24.50685     -3.43420      5.37381         0.133949      0.860968      0.108113
      9.24085     -3.43420      5.37381         0.135134      0.860941      0.108188
     11.83180      6.02515      5.37381         0.860968     -0.133949      0.108113
     11.83180     -9.24085      5.37381         0.860941     -0.135134      0.108188
     18.70019     -6.02515      5.37381        -0.860968      0.133949      0.108113
     18.70019      9.24085      5.37381        -0.860941      0.135134      0.108188
      7.30472      2.84758      5.36018        -0.478076     -0.879087      0.100884
     22.57072      2.84758      5.36018        -0.477482     -0.881068      0.100363
     23.22727     -2.84758      5.36018         0.478076      0.879087      0.100884
      7.96127     -2.84758      5.36018         0.477482      0.881068      0.100363
     12.41841      7.30472      5.36018         0.879087     -0.478076      0.100884
     12.41841     -7.96127      5.36018         0.881068     -0.477482      0.100363
     18.11358     -7.30472      5.36018        -0.879087      0.478076      0.100884
     18.11358      7.96127      5.36018        -0.881068      0.477482      0.100363
      7.45389      1.43410      5.45178        -1.427157      0.211979     -0.005190
     22.71989      1.43410      5.45178        -1.422267      0.209315     -0.005219
     23.07811     -1.43410      5.45178         1.427157     -0.211979     -0.005190
      7.81211     -1.43410      5.45178         1.422267     -0.209315     -0.005219
     13.83189      7.45389      5.45178        -0.211979     -1.427157     -0.005190
     13.83189     -7.81211      5.45178        -0.209315     -1.422267     -0.005219
     16.70010     -7.45389      5.45178         0.211979      1.427157     -0.005190
     16.70010      7.81211      5.45178         0.209315      1.422267     -0.005219
      6.27129      0.58269      5.53759         0.527218      1.251351     -0.024875
     21.53729      0.58269      5.53759         0.521825      1.252936     -0.025472
     24.26071     -0.58269      5.53759        -0.527218     -1.251351     -0.024875
      8.99471     -0.58269      5.53759        -0.521825     -1.252936     -0.025472
     14.68331      6.27129      5.53759        -1.251351      0.527218     -0.024875
     14.68331     -8.99471      5.53759        -1.252936      0.521825     -0.025472
     15.84869     -6.27129      5.53759         1.251351     -0.527218     -0.024875
     15.84869      8.99471      5.53759         1.252936     -0.521825     -0.025472
      8.84881      0.89302      5.45960         0.044481      0.033975     -0.073899
     24.11481      0.89302      5.45960         0.039190      0.039034     -0.073546
     21.68319     -0.89302      5.45960        -0.044481     -0.033975     -0.073899
      6.41719     -0.89302      5.45960        -0.039190     -0.039034     -0.073546
     14.37298      8.84881      5.45960        -0.033975      0.044481     -0.073899
     14.37298     -6.41719      5.45960        -0.039034      0.039190     -0.073546
     16.15902     -8.84881      5.45960         0.033975     -0.044481     -0.073899
     16.15902      6.41719      5.45960         0.039034     -0.039190     -0.073546
      1.83694     -0.16421      5.52636         0.081589     -0.253694      0.055973
     17.10293     -0.16421      5.52636         0.089715     -0.259183      0.053855
     13.42906      0.16421      5.52636        -0.089715      0.259183      0.053855
     28.69506      0.16421      5.52636        -0.081589      0.253694      0.055973
     15.43021    -13.42906      5.52636         0.259183      0.089715      0.053855
     15.43021      1.83694      5.52636         0.253694      0.081589      0.055973
     15.10179     -1.83694      5.52636        -0.253694     -0.081589      0.055973
     15.10179     13.42906      5.52636        -0.259183     -0.089715      0.053855
      2.80416      1.23991      4.00611        -0.284452     -0.095012     -0.098512
     18.07016      1.23991      4.00611        -0.285779     -0.094658     -0.100207
     27.72783     -1.23991      4.00611         0.284452      0.095012     -0.098512
     12.46184     -1.23991      4.00611         0.285779      0.094658     -0.100207
     14.02609      2.80416      4.00611         0.095012     -0.284452     -0.098512
     14.02609    -12.46184      4.00611         0.094658     -0.285779     -0.100207
     16.50591     -2.80416      4.00611        -0.095012      0.284452     -0.098512
     16.50591     12.46184      4.00611        -0.094658      0.285779     -0.100207
      3.90442      0.46472      5.88435        -0.857711     -0.328260     -0.214742
     19.17042      0.46472      5.88435        -0.857418     -0.319386     -0.214960
     11.36158     -0.46472      5.88435         0.857418      0.319386     -0.214960
     26.62758     -0.46472      5.88435         0.857711      0.328260     -0.214742
     14.80128    -11.36158      5.88435         0.319386     -0.857418     -0.214960
     14.80128      3.90442      5.88435         0.328260     -0.857711     -0.214742
     15.73072     -3.90442      5.88435        -0.328260      0.857711     -0.214742
     15.73072     11.36158      5.88435        -0.319386      0.857418     -0.214960
      9.80789      1.67876      5.37328        -0.190952     -0.353531      0.102626
     25.07389      1.67876      5.37328        -0.185440     -0.355760      0.103367
     20.72411     -1.67876      5.37328         0.190952      0.353531      0.102626
      5.45811     -1.67876      5.37328         0.185440      0.355760      0.103367
     13.58724      9.80789      5.37328         0.353531     -0.190952      0.102626
     13.58724     -5.45811      5.37328         0.355760     -0.185440      0.103367
     16.94476     -9.80789      5.37328        -0.353531      0.190952      0.102626
     16.94476      5.45811      5.37328        -0.355760      0.185440      0.103367
 -----------------------------------------------------------------------------------
    total drift:                                0.000000     -0.000000      0.332891


--------------------------------------------------------------------------------------------------------



  FREE ENERGIE OF THE ION-ELECTRON SYSTEM (eV)
  ---------------------------------------------------
  free  energy   TOTEN  =      -891.05780068 eV

  energy  without entropy=     -890.96249049  energy(sigma->0) =     -891.02603062
 


--------------------------------------------------------------------------------------------------------


    POTLOK:  cpu time      0.2445: real time      0.2484


--------------------------------------------------------------------------------------------------------


     LOOP+:  cpu time   2892.8332: real time   2905.0443
    4ORBIT:  cpu time      0.0000: real time      0.0000



 total charge

# of ion       s       p       d       tot
------------------------------------------
    1        0.311   6.361   4.027  10.699
    2        0.311   6.361   4.027  10.699
    3        0.636   0.047   0.000   0.684
    4        0.636   0.047   0.000   0.684
    5        0.636   0.047   0.000   0.684
    6        0.636   0.047   0.000   0.684
    7        0.636   0.047   0.000   0.684
    8        0.636   0.047   0.000   0.684
    9        0.636   0.047   0.000   0.684
   10        0.636   0.047   0.000   0.684
   11        0.644   0.046   0.000   0.690
   12        0.644   0.046   0.000   0.690
   13        0.644   0.046   0.000   0.690
   14        0.644   0.046   0.000   0.690
   15        0.644   0.046   0.000   0.690
   16        0.644   0.046   0.000   0.690
   17        0.644   0.046   0.000   0.690
   18        0.644   0.046   0.000   0.690
   19        0.639   0.048   0.000   0.687
   20        0.639   0.048   0.000   0.687
   21        0.639   0.048   0.000   0.687
   22        0.639   0.048   0.000   0.687
   23        0.639   0.048   0.000   0.687
   24        0.639   0.048   0.000   0.687
   25        0.639   0.048   0.000   0.687
   26        0.639   0.048   0.000   0.687
   27        0.854   1.699   0.000   2.553
   28        0.854   1.699   0.000   2.553
   29        0.854   1.699   0.000   2.553
   30        0.854   1.699   0.000   2.553
   31        0.854   1.699   0.000   2.553
   32        0.854   1.699   0.000   2.553
   33        0.854   1.699   0.000   2.553
   34        0.854   1.699   0.000   2.553
   35        0.852   1.703   0.000   2.555
   36        0.852   1.703   0.000   2.555
   37        0.852   1.703   0.000   2.555
   38        0.852   1.703   0.000   2.555
   39        0.852   1.703   0.000   2.555
   40        0.852   1.703   0.000   2.555
   41        0.852   1.703   0.000   2.555
   42        0.852   1.703   0.000   2.555
   43        0.868   1.751   0.000   2.619
   44        0.868   1.751   0.000   2.619
   45        0.868   1.751   0.000   2.619
   46        0.868   1.751   0.000   2.619
   47        0.868   1.751   0.000   2.619
   48        0.868   1.751   0.000   2.619
   49        0.868   1.751   0.000   2.619
   50        0.868   1.751   0.000   2.619
   51        0.865   1.740   0.000   2.606
   52        0.865   1.740   0.000   2.606
   53        0.865   1.740   0.000   2.606
   54        0.865   1.740   0.000   2.606
   55        0.865   1.740   0.000   2.606
   56        0.865   1.740   0.000   2.606
   57        0.865   1.740   0.000   2.606
   58        0.865   1.740   0.000   2.606
   59        0.866   1.743   0.000   2.609
   60        0.866   1.743   0.000   2.609
   61        0.866   1.743   0.000   2.609
   62        0.866   1.743   0.000   2.609
   63        0.866   1.743   0.000   2.609
   64        0.866   1.743   0.000   2.609
   65        0.866   1.743   0.000   2.609
   66        0.866   1.743   0.000   2.609
   67        0.857   1.719   0.000   2.576
   68        0.857   1.719   0.000   2.576
   69        0.857   1.719   0.000   2.576
   70        0.857   1.719   0.000   2.576
   71        0.857   1.719   0.000   2.576
   72        0.857   1.719   0.000   2.576
   73        0.857   1.719   0.000   2.576
   74        0.857   1.719   0.000   2.576
   75        0.852   1.730   0.000   2.582
   76        0.852   1.730   0.000   2.582
   77        0.852   1.730   0.000   2.582
   78        0.852   1.730   0.000   2.582
   79        0.852   1.730   0.000   2.582
   80        0.852   1.730   0.000   2.582
   81        0.852   1.730   0.000   2.582
   82        0.852   1.730   0.000   2.582
   83        0.870   1.696   0.000   2.566
   84        0.870   1.696   0.000   2.566
   85        0.870   1.696   0.000   2.566
   86        0.870   1.696   0.000   2.566
   87        0.870   1.696   0.000   2.566
   88        0.870   1.696   0.000   2.566
   89        0.870   1.696   0.000   2.566
   90        0.870   1.696   0.000   2.566
   91        1.571   3.585   0.000   5.156
   92        1.571   3.585   0.000   5.156
   93        1.571   3.585   0.000   5.156
   94        1.571   3.585   0.000   5.156
   95        1.571   3.585   0.000   5.156
   96        1.571   3.585   0.000   5.156
   97        1.571   3.585   0.000   5.156
   98        1.571   3.585   0.000   5.156
   99        1.596   3.546   0.000   5.142
  100        1.596   3.546   0.000   5.142
  101        1.596   3.546   0.000   5.142
  102        1.596   3.546   0.000   5.142
  103        1.596   3.546   0.000   5.142
  104        1.596   3.546   0.000   5.142
  105        1.596   3.546   0.000   5.142
  106        1.596   3.546   0.000   5.142
  107        1.570   3.580   0.000   5.149
  108        1.570   3.580   0.000   5.150
  109        1.570   3.580   0.000   5.150
  110        1.570   3.580   0.000   5.149
  111        1.570   3.580   0.000   5.150
  112        1.570   3.580   0.000   5.149
  113        1.570   3.580   0.000   5.149
  114        1.570   3.580   0.000   5.150
  115        1.594   3.489   0.000   5.083
  116        1.594   3.489   0.000   5.083
  117        1.594   3.489   0.000   5.083
  118        1.594   3.489   0.000   5.083
  119        1.594   3.489   0.000   5.083
  120        1.594   3.489   0.000   5.083
  121        1.594   3.489   0.000   5.083
  122        1.594   3.489   0.000   5.083
--------------------------------------------------
tot        121.697 237.702   8.053 367.452



 magnetization (x)

# of ion       s       p       d       tot
------------------------------------------
    1        0.053   0.025   2.723   2.801
    2       -0.053  -0.025  -2.723  -2.801
    3       -0.000  -0.000   0.000  -0.000
    4       -0.000  -0.000   0.000  -0.000
    5       -0.000  -0.000   0.000  -0.000
    6       -0.000  -0.000   0.000  -0.000
    7        0.000   0.000   0.000   0.000
    8        0.000   0.000   0.000   0.000
    9        0.000   0.000   0.000   0.000
   10        0.000   0.000   0.000   0.000
   11       -0.001   0.000   0.000  -0.001
   12       -0.001   0.000   0.000  -0.001
   13       -0.001   0.000   0.000  -0.001
   14       -0.001   0.000   0.000  -0.001
   15        0.001  -0.000   0.000   0.001
   16        0.001  -0.000   0.000   0.001
   17        0.001  -0.000   0.000   0.001
   18        0.001  -0.000   0.000   0.001
   19       -0.000  -0.000   0.000  -0.000
   20       -0.000  -0.000   0.000  -0.000
   21       -0.000  -0.000   0.000  -0.000
   22       -0.000  -0.000   0.000  -0.000
   23        0.000   0.000   0.000   0.000
   24        0.000   0.000   0.000   0.000
   25        0.000   0.000   0.000   0.000
   26        0.000   0.000   0.000   0.000
   27        0.002   0.007   0.000   0.009
   28       -0.002  -0.006   0.000  -0.008
   29       -0.002  -0.006   0.000  -0.008
   30        0.002   0.007   0.000   0.009
   31        0.002   0.006   0.000   0.008
   32       -0.002  -0.007   0.000  -0.009
   33       -0.002  -0.007   0.000  -0.009
   34        0.002   0.006   0.000   0.008
   35       -0.000  -0.004   0.000  -0.004
   36       -0.000  -0.001   0.000  -0.002
   37       -0.000  -0.004   0.000  -0.004
   38       -0.000  -0.001   0.000  -0.002
   39        0.000   0.004   0.000   0.004
   40        0.000   0.001   0.000   0.002
   41        0.000   0.004   0.000   0.004
   42        0.000   0.001   0.000   0.002
   43       -0.000  -0.003   0.000  -0.003
   44       -0.000  -0.002   0.000  -0.003
   45       -0.000  -0.003   0.000  -0.003
   46       -0.000  -0.002   0.000  -0.003
   47        0.000   0.003   0.000   0.003
   48        0.000   0.002   0.000   0.003
   49        0.000   0.003   0.000   0.003
   50        0.000   0.002   0.000   0.003
   51        0.000   0.000   0.000   0.000
   52        0.000   0.001   0.000   0.001
   53        0.000   0.000   0.000   0.000
   54        0.000   0.001   0.000   0.001
   55       -0.000  -0.000   0.000  -0.000
   56       -0.000  -0.001   0.000  -0.001
   57       -0.000  -0.000   0.000  -0.000
   58       -0.000  -0.001   0.000  -0.001
   59       -0.000  -0.003   0.000  -0.003
   60       -0.000  -0.004   0.000  -0.004
   61       -0.000  -0.003   0.000  -0.003
   62       -0.000  -0.004   0.000  -0.004
   63        0.000   0.003   0.000   0.003
   64        0.000   0.004   0.000   0.004
   65        0.000   0.003   0.000   0.003
   66        0.000   0.004   0.000   0.004
   67       -0.002  -0.010   0.000  -0.012
   68       -0.002  -0.009   0.000  -0.011
   69       -0.002  -0.010   0.000  -0.012
   70       -0.002  -0.009   0.000  -0.011
   71        0.002   0.010   0.000   0.012
   72        0.002   0.009   0.000   0.011
   73        0.002   0.010   0.000   0.012
   74        0.002   0.009   0.000   0.011
   75       -0.002  -0.010   0.000  -0.012
   76       -0.002  -0.010   0.000  -0.012
   77       -0.002  -0.010   0.000  -0.012
   78       -0.002  -0.010   0.000  -0.012
   79        0.002   0.010   0.000   0.012
   80        0.002   0.010   0.000   0.012
   81        0.002   0.010   0.000   0.012
   82        0.002   0.010   0.000   0.012
   83        0.001   0.001   0.000   0.002
   84        0.001   0.001   0.000   0.002
   85        0.001   0.001   0.000   0.002
   86        0.001   0.001   0.000   0.002
   87       -0.001  -0.001   0.000  -0.002
   88       -0.001  -0.001   0.000  -0.002
   89       -0.001  -0.001   0.000  -0.002
   90       -0.001  -0.001   0.000  -0.002
   91       -0.002  -0.077   0.000  -0.079
   92        0.002   0.075   0.000   0.077
   93        0.002   0.075   0.000   0.077
   94       -0.002  -0.077   0.000  -0.079
   95       -0.002  -0.075   0.000  -0.077
   96        0.002   0.077   0.000   0.079
   97        0.002   0.077   0.000   0.079
   98       -0.002  -0.075   0.000  -0.077
   99       -0.000  -0.030   0.000  -0.030
  100        0.000   0.024   0.000   0.025
  101       -0.000  -0.030   0.000  -0.030
  102        0.000   0.024   0.000   0.025
  103        0.000   0.030   0.000   0.030
  104       -0.000  -0.024   0.000  -0.025
  105        0.000   0.030   0.000   0.030
  106       -0.000  -0.024   0.000  -0.025
  107       -0.001  -0.016   0.000  -0.017
  108       -0.000  -0.014   0.000  -0.014
  109       -0.000  -0.014   0.000  -0.014
  110       -0.001  -0.016   0.000  -0.017
  111        0.000   0.014   0.000   0.014
  112        0.001   0.016   0.000   0.017
  113        0.001   0.016   0.000   0.017
  114        0.000   0.014   0.000   0.014
  115       -0.001  -0.088   0.000  -0.089
  116       -0.001  -0.085   0.000  -0.086
  117       -0.001  -0.088   0.000  -0.089
  118       -0.001  -0.085   0.000  -0.086
  119        0.001   0.088   0.000   0.089
  120        0.001   0.085   0.000   0.086
  121        0.001   0.088   0.000   0.089
  122        0.001   0.085   0.000   0.086
--------------------------------------------------
tot          0.000   0.000   0.000   0.000
 

 total amount of memory used by VASP MPI-rank0  1674749. kBytes
=======================================================================

   base      :      30000. kBytes
   nonlr-proj:       3974. kBytes
   fftplans  :      12243. kBytes
   grid      :      29952. kBytes
   one-center:        342. kBytes
   wavefun   :    1598238. kBytes
 
  
  
 General timing and accounting informations for this job:
 ========================================================
  
                  Total CPU time used (sec):     3145.557
                            User time (sec):     3113.805
                          System time (sec):       31.751
                         Elapsed time (sec):     3159.777
  
                   Maximum memory used (kb):     2114004.
                   Average memory used (kb):          N/A
  
                          Minor page faults:       545945
                          Major page faults:          132
                 Voluntary context switches:       177795
