 vasp.6.3.2 27Jun22 (build Aug 02 2025 14:55:03) complex                        
  
 executed on             LinuxIFC date 2026.02.02  10:41:49
 running on   48 total cores
 distrk:  each k-point on   48 cores,    1 groups
 distr:  one band on NCORE=  12 cores,    4 groups


--------------------------------------------------------------------------------------------------------


 INCAR:
   PREC = Normal
   ENCUT = 500
   IBRION = -1
   ISPIN = 2
   MAGMOM = 5 -5 4*1 4*-1 4*1 4*-1 4*1 4*-1 4*1 4*-1 4*1 4*-1 4*1 4*-1 4*1 4*-1 4*1 4*-1 4*1 4*-1 4*1 4*-1 4*1 4*-1 4*1 4*-1 4*1 4*-1 4*1 4*-1 4*1 4*-1 4*1 4*-1 4*1 4*-1 4*1 4*-1 4*1 4*-1 4*1 4*-1 4*1 4*-1 4*1 4*-1 4*1 4*-1 4*1 4*-1 4*1 4*-1 4*1 4*-1 4*1 4*-1 4*1 4*-1 4*1 4*-1 4*1 4*-1 4*1 4*-1 4*1 4*-1 4*1 4*-1 4*1 4*-1 4*1 4*-1 4*1 4*-1 4*1 4*-1 4*1 4*-1 4*1 4*-1
   NSW = 0
   NELM = 200
   ISIF = 2
   EDIFF = 1E-5
   EDIFFG = -0.01
   ALGO = Fast
   ISTART = 1
   ICHARG = 11
   LREAL = Auto
   LWAVE = .F.
   LCHARG = .F.
   LVTOT = .T.
   NPAR = 4
   AMIX = 0.2
   BMIX = 0.0001
   AMIX_MAG = 0.8
   BMIX_MAG = 0.0001
   LDAU = .TRUE.
   LDAUTYPE = 2
   LDAUL = 2 -1 -1 -1 -1 -1
   LDAUU = 3.0 0 0 0 0 0
   LDAUJ = 1.0 0 0 0 0 0
   LMAXMIX = 4
   LORBIT = 11

 POTCAR:    PAW_PBE Cr_pv 02Aug2007               
 POTCAR:    PAW_PBE H 15Jun2001                   
 POTCAR:    PAW_PBE C 08Apr2002                   
 POTCAR:    PAW_PBE S 06Sep2000                   
 POTCAR:    PAW_PBE O 08Apr2002                   
 WARNING: For LVTOT=.TRUE., VASP.5.x writes the TOTAL local potential to the
     file LOCPOT. If you want only the Hartree contributions, use LVHAR=.TRUE.
     instead. 

 POTCAR:    PAW_PBE Cr_pv 02Aug2007               
   SHA256 =  c9a7df34d3cdbacf1090e328ef39c0b420964e11c23f63548d1ac9dd218cdba0 Cr_pv/POTCAR          
   COPYR  = (c) Copyright 02Aug2007 Georg Kresse                                                    
   COPYR  = This file is part of the software VASP. Any use, copying, and all other rights are regul
   COPYR  = If you do not have a valid VASP license, you may not use, copy or distribute this file. 
   VRHFIN =Cr : p6d5s1                                                                              
   LEXCH  = PE                                                                                      
   EATOM  =  1647.9177 eV,  121.1185 Ry                                                             
                                                                                                    
   TITEL  = PAW_PBE Cr_pv 02Aug2007                                                                 
   LULTRA =        F    use ultrasoft PP ?                                                          
   IUNSCR =        1    unscreen: 0-lin 1-nonlin 2-no                                               
   RPACOR =    2.080    partial core radius                                                         
   POMASS =   51.996; ZVAL   =   12.000    mass and valenz                                          
   RCORE  =    2.300    outmost cutoff radius                                                       
   RWIGS  =    2.500; RWIGS  =    1.323    wigner-seitz radius (au A)                               
   ENMAX  =  265.681; ENMIN  =  199.261 eV                                                          
   ICORE  =        3    local potential                                                             
   LCOR   =        T    correct aug charges                                                         
   LPAW   =        T    paw PP                                                                      
   EAUG   =  519.424                                                                                
   DEXC   =    0.000                                                                                
   RMAX   =    2.356    core radius for proj-oper                                                   
   RAUG   =    1.300    factor for augmentation sphere                                              
   RDEP   =    2.447    radius for radial grids                                                     
   RDEPT  =    1.882    core radius for aug-charge                                                  
                                                                                                    
   Atomic configuration                                                                             
    8 entries                                                                                       
     n  l   j            E        occ.                                                              
     1  0  0.50     -5880.4963   2.0000                                                             
     2  0  0.50      -667.0865   2.0000                                                             
     2  1  1.50      -560.6250   6.0000                                                             
     3  0  0.50       -73.9860   2.0000                                                             
     3  1  1.50       -45.4378   6.0000                                                             
     3  2  2.50        -2.9137   5.0000                                                             
     4  0  0.50        -4.0071   1.0000                                                             
     4  3  2.50        -1.3606   0.0000                                                             
   Description                                                                                      
     l       E           TYP  RCUT    TYP  RCUT                                                     
     1    -45.4377911     23  2.000                                                                 
     1      1.3605826     23  2.000                                                                 
     2     -2.9136672     23  2.300                                                                 
     2     -4.2742498     23  2.300                                                                 
     0     -4.0071320     23  2.300                                                                 
     0      9.4498803     23  2.300                                                                 
     3      2.7211652     23  2.300                                                                 
  local pseudopotential read in
  partial core-charges read in
  partial kinetic energy density read in
  atomic valenz-charges read in
  non local Contribution for L=           1  read in
    real space projection operators read in
  non local Contribution for L=           1  read in
    real space projection operators read in
  non local Contribution for L=           2  read in
    real space projection operators read in
  non local Contribution for L=           2  read in
    real space projection operators read in
  non local Contribution for L=           0  read in
    real space projection operators read in
  non local Contribution for L=           0  read in
    real space projection operators read in
    PAW grid and wavefunctions read in
 
   number of l-projection  operators is LMAX  =           6
   number of lm-projection operators is LMMAX =          18
 
 POTCAR:    PAW_PBE H 15Jun2001                   
   SHA256 =  030f79b5d3ab3cf0e668861823c8fb652ff669f3e15e46930bd03bfd63a607b6 H/POTCAR              
   COPYR  = (c) Copyright 15Jun2001 Georg Kresse                                                    
   COPYR  = This file is part of the software VASP. Any use, copying, and all other rights are regul
   COPYR  = If you do not have a valid VASP license, you may not use, copy or distribute this file. 
   VRHFIN =H: ultrasoft test                                                                        
   LEXCH  = PE                                                                                      
   EATOM  =    12.4884 eV,    0.9179 Ry                                                             
                                                                                                    
   TITEL  = PAW_PBE H 15Jun2001                                                                     
   LULTRA =        F    use ultrasoft PP ?                                                          
   IUNSCR =        0    unscreen: 0-lin 1-nonlin 2-no                                               
   RPACOR =    0.000    partial core radius                                                         
   POMASS =    1.000; ZVAL   =    1.000    mass and valenz                                          
   RCORE  =    1.100    outmost cutoff radius                                                       
   RWIGS  =    0.700; RWIGS  =    0.370    wigner-seitz radius (au A)                               
   ENMAX  =  250.000; ENMIN  =  200.000 eV                                                          
   RCLOC  =    0.701    cutoff for local pot                                                        
   LCOR   =        T    correct aug charges                                                         
   LPAW   =        T    paw PP                                                                      
   EAUG   =  400.000                                                                                
   RMAX   =    1.123    core radius for proj-oper                                                   
   RAUG   =    1.200    factor for augmentation sphere                                              
   RDEP   =    1.112    radius for radial grids                                                     
   RDEPT  =    0.926    core radius for aug-charge                                                  
                                                                                                    
   Atomic configuration                                                                             
    2 entries                                                                                       
     n  l   j            E        occ.                                                              
     1  0  0.50        -6.4927   1.0000                                                             
     2  1  0.50        -3.4015   0.0000                                                             
   Description                                                                                      
     l       E           TYP  RCUT    TYP  RCUT                                                     
     0     -6.4927494     23  1.100                                                                 
     0      6.8029130     23  1.100                                                                 
     1     -4.0817478     23  1.100                                                                 
  local pseudopotential read in
  atomic valenz-charges read in
  non local Contribution for L=           0  read in
    real space projection operators read in
  non local Contribution for L=           0  read in
    real space projection operators read in
  non local Contribution for L=           1  read in
    real space projection operators read in
    PAW grid and wavefunctions read in
 
   number of l-projection  operators is LMAX  =           3
   number of lm-projection operators is LMMAX =           5
 
 POTCAR:    PAW_PBE C 08Apr2002                   
   SHA256 =  253f7b50bb8d59471dbedb8285d89021f4a42ed1a2c5d38a03a736e69125dd95 C/POTCAR              
   COPYR  = (c) Copyright 08Apr2002 Georg Kresse                                                    
   COPYR  = This file is part of the software VASP. Any use, copying, and all other rights are regul
   COPYR  = If you do not have a valid VASP license, you may not use, copy or distribute this file. 
   VRHFIN =C: s2p2                                                                                  
   LEXCH  = PE                                                                                      
   EATOM  =   147.1560 eV,   10.8157 Ry                                                             
                                                                                                    
   TITEL  = PAW_PBE C 08Apr2002                                                                     
   LULTRA =        F    use ultrasoft PP ?                                                          
   IUNSCR =        1    unscreen: 0-lin 1-nonlin 2-no                                               
   RPACOR =    1.200    partial core radius                                                         
   POMASS =   12.011; ZVAL   =    4.000    mass and valenz                                          
   RCORE  =    1.500    outmost cutoff radius                                                       
   RWIGS  =    1.630; RWIGS  =    0.863    wigner-seitz radius (au A)                               
   ENMAX  =  400.000; ENMIN  =  300.000 eV                                                          
   ICORE  =        2    local potential                                                             
   LCOR   =        T    correct aug charges                                                         
   LPAW   =        T    paw PP                                                                      
   EAUG   =  644.873                                                                                
   DEXC   =    0.000                                                                                
   RMAX   =    1.529    core radius for proj-oper                                                   
   RAUG   =    1.300    factor for augmentation sphere                                              
   RDEP   =    1.501    radius for radial grids                                                     
   RDEPT  =    1.300    core radius for aug-charge                                                  
                                                                                                    
   Atomic configuration                                                                             
    4 entries                                                                                       
     n  l   j            E        occ.                                                              
     1  0  0.50      -273.3789   2.0000                                                             
     2  0  0.50       -13.7508   2.0000                                                             
     2  1  0.50        -5.2854   2.0000                                                             
     3  2  1.50        -5.4423   0.0000                                                             
   Description                                                                                      
     l       E           TYP  RCUT    TYP  RCUT                                                     
     0    -13.7508458     23  1.200                                                                 
     0     -8.2022199     23  1.200                                                                 
     1     -5.2854383     23  1.500                                                                 
     1     34.0145650     23  1.500                                                                 
     2     -5.4423304      7  1.500                                                                 
  local pseudopotential read in
  partial core-charges read in
  partial kinetic energy density read in
  atomic valenz-charges read in
  non local Contribution for L=           0  read in
    real space projection operators read in
  non local Contribution for L=           0  read in
    real space projection operators read in
  non local Contribution for L=           1  read in
    real space projection operators read in
  non local Contribution for L=           1  read in
    real space projection operators read in
    PAW grid and wavefunctions read in
 
   number of l-projection  operators is LMAX  =           4
   number of lm-projection operators is LMMAX =           8
 
 POTCAR:    PAW_PBE S 06Sep2000                   
   SHA256 =  0fc7481fb0695f01bdc6462160264c5c84044ae9ec85a907d398b887a2bc3132 S/POTCAR              
   COPYR  = (c) Copyright 06Sep2000 Georg Kresse                                                    
   COPYR  = This file is part of the software VASP. Any use, copying, and all other rights are regul
   COPYR  = If you do not have a valid VASP license, you may not use, copy or distribute this file. 
   VRHFIN =S : s2p4                                                                                 
   LEXCH  = PE                                                                                      
   EATOM  =   276.8230 eV,   20.3459 Ry                                                             
                                                                                                    
   TITEL  = PAW_PBE S 06Sep2000                                                                     
   LULTRA =        F    use ultrasoft PP ?                                                          
   IUNSCR =        1    unscreen: 0-lin 1-nonlin 2-no                                               
   RPACOR =    1.500    partial core radius                                                         
   POMASS =   32.066; ZVAL   =    6.000    mass and valenz                                          
   RCORE  =    1.900    outmost cutoff radius                                                       
   RWIGS  =    2.200; RWIGS  =    1.164    wigner-seitz radius (au A)                               
   ENMAX  =  258.689; ENMIN  =  194.016 eV                                                          
   ICORE  =        2    local potential                                                             
   LCOR   =        T    correct aug charges                                                         
   LPAW   =        T    paw PP                                                                      
   EAUG   =  335.092                                                                                
   DEXC   =    0.000                                                                                
   RMAX   =    1.942    core radius for proj-oper                                                   
   RAUG   =    1.300    factor for augmentation sphere                                              
   RDEP   =    1.954    radius for radial grids                                                     
   RDEPT  =    1.744    core radius for aug-charge                                                  
                                                                                                    
   Atomic configuration                                                                             
    6 entries                                                                                       
     n  l   j            E        occ.                                                              
     1  0  0.50     -2405.8406   2.0000                                                             
     2  0  0.50      -211.7007   2.0000                                                             
     2  1  1.50      -156.4958   6.0000                                                             
     3  0  0.50       -17.2562   2.0000                                                             
     3  1  0.50        -7.0085   4.0000                                                             
     3  2  1.50        -6.8029   0.0000                                                             
   Description                                                                                      
     l       E           TYP  RCUT    TYP  RCUT                                                     
     0    -17.2561641     23  1.900                                                                 
     0    -15.8743224     23  1.900                                                                 
     1     -7.0085400     23  1.900                                                                 
     1     -2.7779785     23  1.900                                                                 
     2     -6.8029130     23  1.900                                                                 
  local pseudopotential read in
  partial core-charges read in
  partial kinetic energy density read in
  atomic valenz-charges read in
  non local Contribution for L=           0  read in
    real space projection operators read in
  non local Contribution for L=           0  read in
    real space projection operators read in
  non local Contribution for L=           1  read in
    real space projection operators read in
  non local Contribution for L=           1  read in
    real space projection operators read in
    PAW grid and wavefunctions read in
 
   number of l-projection  operators is LMAX  =           4
   number of lm-projection operators is LMMAX =           8
 
 POTCAR:    PAW_PBE O 08Apr2002                   
   SHA256 =  818f92134a0a090dccd8ba1447fa70422a3b330e708bb4f08108d8ae51209ddf O/POTCAR              
   COPYR  = (c) Copyright 08Apr2002 Georg Kresse                                                    
   COPYR  = This file is part of the software VASP. Any use, copying, and all other rights are regul
   COPYR  = If you do not have a valid VASP license, you may not use, copy or distribute this file. 
   VRHFIN =O: s2p4                                                                                  
   LEXCH  = PE                                                                                      
   EATOM  =   432.3788 eV,   31.7789 Ry                                                             
                                                                                                    
   TITEL  = PAW_PBE O 08Apr2002                                                                     
   LULTRA =        F    use ultrasoft PP ?                                                          
   IUNSCR =        1    unscreen: 0-lin 1-nonlin 2-no                                               
   RPACOR =    1.200    partial core radius                                                         
   POMASS =   16.000; ZVAL   =    6.000    mass and valenz                                          
   RCORE  =    1.520    outmost cutoff radius                                                       
   RWIGS  =    1.550; RWIGS  =    0.820    wigner-seitz radius (au A)                               
   ENMAX  =  400.000; ENMIN  =  300.000 eV                                                          
   ICORE  =        2    local potential                                                             
   LCOR   =        T    correct aug charges                                                         
   LPAW   =        T    paw PP                                                                      
   EAUG   =  605.392                                                                                
   DEXC   =    0.000                                                                                
   RMAX   =    1.553    core radius for proj-oper                                                   
   RAUG   =    1.300    factor for augmentation sphere                                              
   RDEP   =    1.550    radius for radial grids                                                     
   RDEPT  =    1.329    core radius for aug-charge                                                  
                                                                                                    
   Atomic configuration                                                                             
    4 entries                                                                                       
     n  l   j            E        occ.                                                              
     1  0  0.50      -514.6923   2.0000                                                             
     2  0  0.50       -23.9615   2.0000                                                             
     2  1  0.50        -9.0305   4.0000                                                             
     3  2  1.50        -9.5241   0.0000                                                             
   Description                                                                                      
     l       E           TYP  RCUT    TYP  RCUT                                                     
     0    -23.9615318     23  1.200                                                                 
     0     -9.5240782     23  1.200                                                                 
     1     -9.0304911     23  1.520                                                                 
     1      8.1634956     23  1.520                                                                 
     2     -9.5240782      7  1.500                                                                 
  local pseudopotential read in
  partial core-charges read in
  partial kinetic energy density read in
  kinetic energy density of atom read in
  atomic valenz-charges read in
  non local Contribution for L=           0  read in
    real space projection operators read in
  non local Contribution for L=           0  read in
    real space projection operators read in
  non local Contribution for L=           1  read in
    real space projection operators read in
  non local Contribution for L=           1  read in
    real space projection operators read in
    PAW grid and wavefunctions read in
 
   number of l-projection  operators is LMAX  =           4
   number of lm-projection operators is LMMAX =           8
 
 Optimization of the real space projectors (new method)

 maximal supplied QI-value         = 16.25
 optimisation between [QCUT,QGAM] = [ 11.38, 22.75] = [ 36.24,144.96] Ry 
 Optimized for a Real-space Cutoff    1.31 Angstroem

   l    n(q)    QCUT    max X(q) W(low)/X(q) W(high)/X(q)  e(spline) 
   1      8    11.376     3.262    0.15E-03    0.36E-03    0.86E-07
   1      8    11.376     5.741    0.39E-03    0.84E-03    0.21E-06
   2      8    11.376    60.438    0.39E-03    0.55E-03    0.20E-06
   2      8    11.376    55.380    0.40E-03    0.57E-03    0.20E-06
   0      9    11.376    80.273    0.17E-03    0.16E-03    0.48E-07
   0      9    11.376    36.654    0.15E-03    0.14E-03    0.43E-07
 Optimization of the real space projectors (new method)

 maximal supplied QI-value         = 34.20
 optimisation between [QCUT,QGAM] = [ 11.29, 22.57] = [ 35.68,142.71] Ry 
 Optimized for a Real-space Cutoff    1.16 Angstroem

   l    n(q)    QCUT    max X(q) W(low)/X(q) W(high)/X(q)  e(spline) 
   0      8    11.287    19.460    0.40E-03    0.73E-03    0.16E-06
   0      8    11.287    12.209    0.38E-03    0.70E-03    0.15E-06
   1      7    11.287     4.655    0.22E-03    0.25E-04    0.22E-06
 Optimization of the real space projectors (new method)

 maximal supplied QI-value         = 25.13
 optimisation between [QCUT,QGAM] = [ 11.31, 22.87] = [ 35.82,146.48] Ry 
 Optimized for a Real-space Cutoff    1.00 Angstroem

   l    n(q)    QCUT    max X(q) W(low)/X(q) W(high)/X(q)  e(spline) 
   0      7    11.310   115.676    0.43E-03    0.13E-02    0.19E-06
   0      7    11.310    87.132    0.43E-03    0.13E-02    0.18E-06
   1      6    11.310     4.429    0.42E-03    0.74E-03    0.11E-06
   1      6    11.310     2.733    0.34E-03    0.55E-03    0.92E-07
 Optimization of the real space projectors (new method)

 maximal supplied QI-value         = 19.84
 optimisation between [QCUT,QGAM] = [ 11.31, 22.82] = [ 35.82,145.81] Ry 
 Optimized for a Real-space Cutoff    1.16 Angstroem

   l    n(q)    QCUT    max X(q) W(low)/X(q) W(high)/X(q)  e(spline) 
   0      8    11.310   187.594    0.35E-03    0.37E-03    0.44E-07
   0      8    11.310   164.243    0.34E-03    0.37E-03    0.44E-07
   1      7    11.310    67.533    0.33E-03    0.37E-03    0.88E-07
   1      7    11.310    50.729    0.32E-03    0.36E-03    0.86E-07
 Optimization of the real space projectors (new method)

 maximal supplied QI-value         = 24.76
 optimisation between [QCUT,QGAM] = [ 11.39, 22.77] = [ 36.31,145.25] Ry 
 Optimized for a Real-space Cutoff    1.00 Angstroem

   l    n(q)    QCUT    max X(q) W(low)/X(q) W(high)/X(q)  e(spline) 
   0      7    11.387    20.381    0.39E-03    0.13E-02    0.15E-06
   0      7    11.387    15.268    0.42E-03    0.14E-02    0.17E-06
   1      6    11.387     5.964    0.41E-03    0.11E-02    0.17E-06
   1      6    11.387     5.382    0.39E-03    0.87E-03    0.15E-06
  PAW_PBE Cr_pv 02Aug2007               :
 energy of atom  1       EATOM=-1647.9177
 kinetic energy error for atom=    0.0061 (will be added to EATOM!!)
  PAW_PBE H 15Jun2001                   :
 energy of atom  2       EATOM=  -12.4884
 kinetic energy error for atom=    0.0020 (will be added to EATOM!!)
  PAW_PBE C 08Apr2002                   :
 energy of atom  3       EATOM= -147.1560
 kinetic energy error for atom=    0.0076 (will be added to EATOM!!)
  PAW_PBE S 06Sep2000                   :
 energy of atom  4       EATOM= -276.8230
 kinetic energy error for atom=    0.0020 (will be added to EATOM!!)
  PAW_PBE O 08Apr2002                   :
 energy of atom  5       EATOM= -432.3788
 kinetic energy error for atom=    0.0224 (will be added to EATOM!!)
 
 
 POSCAR: Cr2 H32 C48 S16 O48
  positions in direct lattice
  No initial velocities read in
 exchange correlation table for  LEXCH =        8
   RHO(1)=    0.500       N(1)  =     2000
   RHO(2)=  100.500       N(2)  =     4000
 


--------------------------------------------------------------------------------------------------------


 ion  position               nearest neighbor table
   1  0.000  0.000  0.520-  99 1.81 101 1.81 104 1.81 106 1.81
   2  0.500  0.500  0.520- 100 1.81 102 1.81 103 1.81 105 1.81
   3  0.079  0.246  0.408-  43 1.09
   4  0.579  0.746  0.408-  44 1.09
   5  0.921  0.754  0.408-  45 1.09
   6  0.421  0.254  0.408-  46 1.09
   7  0.254  0.579  0.408-  47 1.09
   8  0.754  0.079  0.408-  48 1.09
   9  0.746  0.421  0.408-  49 1.09
  10  0.246  0.921  0.408-  50 1.09
  11  0.179  0.302  0.423-  51 1.09
  12  0.679  0.802  0.423-  52 1.09
  13  0.821  0.698  0.423-  53 1.09
  14  0.321  0.198  0.423-  54 1.09
  15  0.198  0.679  0.423-  55 1.09
  16  0.698  0.179  0.423-  56 1.09
  17  0.802  0.321  0.423-  57 1.09
  18  0.302  0.821  0.423-  58 1.09
  19  0.650  0.599  0.549-  75 1.09
  20  0.150  0.099  0.549-  76 1.09
  21  0.350  0.401  0.549-  77 1.09
  22  0.850  0.901  0.549-  78 1.09
  23  0.901  0.150  0.549-  79 1.09
  24  0.401  0.650  0.549-  80 1.09
  25  0.099  0.850  0.549-  81 1.09
  26  0.599  0.350  0.549-  82 1.09
  27  0.147  0.362  0.533- 131 0.98
  28  0.647  0.862  0.533- 132 0.98
  29  0.853  0.638  0.533- 133 0.98
  30  0.353  0.138  0.533- 134 0.98
  31  0.138  0.647  0.533- 135 0.98
  32  0.638  0.147  0.533- 136 0.98
  33  0.862  0.353  0.533- 137 0.98
  34  0.362  0.853  0.533- 138 0.98
  35  0.109  0.169  0.476-  76 1.39  43 1.40  83 1.77
  36  0.609  0.669  0.476-  75 1.39  44 1.40  84 1.77
  37  0.891  0.831  0.476-  78 1.39  45 1.40  85 1.77
  38  0.391  0.331  0.476-  77 1.39  46 1.40  86 1.77
  39  0.331  0.609  0.476-  80 1.39  47 1.40  87 1.77
  40  0.831  0.109  0.476-  79 1.39  48 1.40  88 1.77
  41  0.669  0.391  0.476-  82 1.39  49 1.40  89 1.77
  42  0.169  0.891  0.476-  81 1.39  50 1.40  90 1.77
  43  0.116  0.227  0.442-   3 1.09  51 1.39  35 1.40
  44  0.616  0.727  0.442-   4 1.09  52 1.39  36 1.40
  45  0.884  0.773  0.442-   5 1.09  53 1.39  37 1.40
  46  0.384  0.273  0.442-   6 1.09  54 1.39  38 1.40
  47  0.273  0.616  0.442-   7 1.09  55 1.39  39 1.40
  48  0.773  0.116  0.442-   8 1.09  56 1.39  40 1.40
  49  0.727  0.384  0.442-   9 1.09  57 1.39  41 1.40
  50  0.227  0.884  0.442-  10 1.09  58 1.39  42 1.40
  51  0.172  0.258  0.451-  11 1.09  43 1.39  59 1.41
  52  0.672  0.758  0.451-  12 1.09  44 1.39  60 1.41
  53  0.828  0.742  0.451-  13 1.09  45 1.39  61 1.41
  54  0.328  0.242  0.451-  14 1.09  46 1.39  62 1.41
  55  0.242  0.672  0.451-  15 1.09  47 1.39  63 1.41
  56  0.742  0.172  0.451-  16 1.09  48 1.39  64 1.41
  57  0.758  0.328  0.451-  17 1.09  49 1.39  65 1.41
  58  0.258  0.828  0.451-  18 1.09  50 1.39  66 1.41
  59  0.220  0.233  0.495-  51 1.41  68 1.41  62 1.49
  60  0.720  0.733  0.495-  52 1.41  67 1.41  61 1.49
  61  0.780  0.767  0.495-  53 1.41  70 1.41  60 1.49
  62  0.280  0.267  0.495-  54 1.41  69 1.41  59 1.49
  63  0.267  0.720  0.495-  55 1.41  72 1.41  66 1.49
  64  0.767  0.220  0.495-  56 1.41  71 1.41  65 1.49
  65  0.733  0.280  0.495-  57 1.41  74 1.41  64 1.49
  66  0.233  0.780  0.495-  58 1.41  73 1.41  63 1.49
  67  0.711  0.676  0.530-  75 1.40  60 1.41  93 1.79
  68  0.211  0.176  0.530-  76 1.40  59 1.41  94 1.79
  69  0.289  0.324  0.530-  77 1.40  62 1.41  91 1.79
  70  0.789  0.824  0.530-  78 1.40  61 1.41  92 1.79
  71  0.824  0.211  0.530-  79 1.40  64 1.41  97 1.79
  72  0.324  0.711  0.530-  80 1.40  63 1.41  98 1.79
  73  0.176  0.789  0.530-  81 1.40  66 1.41  95 1.79
  74  0.676  0.289  0.530-  82 1.40  65 1.41  96 1.79
  75  0.655  0.643  0.521-  19 1.09  36 1.39  67 1.40
  76  0.155  0.143  0.521-  20 1.09  35 1.39  68 1.40
  77  0.345  0.357  0.521-  21 1.09  38 1.39  69 1.40
  78  0.845  0.857  0.521-  22 1.09  37 1.39  70 1.40
  79  0.857  0.155  0.521-  23 1.09  40 1.39  71 1.40
  80  0.357  0.655  0.521-  24 1.09  39 1.39  72 1.40
  81  0.143  0.845  0.521-  25 1.09  42 1.39  73 1.40
  82  0.643  0.345  0.521-  26 1.09  41 1.39  74 1.40
  83  0.040  0.129  0.452- 115 1.43 107 1.44  99 1.60  35 1.77
  84  0.540  0.629  0.452- 116 1.43 108 1.44 100 1.60  36 1.77
  85  0.960  0.871  0.452- 117 1.43 109 1.44 101 1.60  37 1.77
  86  0.460  0.371  0.452- 118 1.43 110 1.44 102 1.60  38 1.77
  87  0.371  0.540  0.452- 119 1.43 111 1.44 103 1.60  39 1.77
  88  0.871  0.040  0.452- 120 1.43 112 1.44 104 1.60  40 1.77
  89  0.629  0.460  0.452- 121 1.43 113 1.44 105 1.60  41 1.77
  90  0.129  0.960  0.452- 122 1.43 114 1.44 106 1.60  42 1.77
  91  0.233  0.359  0.591- 139 1.43 123 1.44 131 1.63  69 1.79
  92  0.733  0.859  0.591- 140 1.43 124 1.44 132 1.63  70 1.79
  93  0.767  0.641  0.591- 141 1.43 125 1.44 133 1.63  67 1.79
  94  0.267  0.141  0.591- 142 1.43 126 1.44 134 1.63  68 1.79
  95  0.141  0.733  0.591- 143 1.43 127 1.44 135 1.63  73 1.79
  96  0.641  0.233  0.591- 144 1.43 128 1.44 136 1.63  74 1.79
  97  0.859  0.267  0.591- 145 1.43 129 1.44 137 1.63  71 1.79
  98  0.359  0.767  0.591- 146 1.43 130 1.44 138 1.63  72 1.79
  99  0.042  0.072  0.510-  83 1.60   1 1.81
 100  0.542  0.572  0.510-  84 1.60   2 1.81
 101  0.958  0.928  0.510-  85 1.60   1 1.81
 102  0.458  0.428  0.510-  86 1.60   2 1.81
 103  0.428  0.542  0.510-  87 1.60   2 1.81
 104  0.928  0.042  0.510-  88 1.60   1 1.81
 105  0.572  0.458  0.510-  89 1.60   2 1.81
 106  0.072  0.958  0.510-  90 1.60   1 1.81
 107  0.988  0.168  0.472-  83 1.44
 108  0.488  0.668  0.472-  84 1.44
 109  0.012  0.832  0.472-  85 1.44
 110  0.512  0.332  0.472-  86 1.44
 111  0.332  0.488  0.472-  87 1.44
 112  0.832  0.988  0.472-  88 1.44
 113  0.668  0.512  0.472-  89 1.44
 114  0.168  0.012  0.472-  90 1.44
 115  0.045  0.105  0.377-  83 1.43
 116  0.545  0.605  0.377-  84 1.43
 117  0.955  0.895  0.377-  85 1.43
 118  0.455  0.395  0.377-  86 1.43
 119  0.395  0.545  0.377-  87 1.43
 120  0.895  0.045  0.377-  88 1.43
 121  0.605  0.455  0.377-  89 1.43
 122  0.105  0.955  0.377-  90 1.43
 123  0.200  0.310  0.631-  91 1.44
 124  0.700  0.810  0.631-  92 1.44
 125  0.800  0.690  0.631-  93 1.44
 126  0.300  0.190  0.631-  94 1.44
 127  0.190  0.700  0.631-  95 1.44
 128  0.690  0.200  0.631-  96 1.44
 129  0.810  0.300  0.631-  97 1.44
 130  0.310  0.800  0.631-  98 1.44
 131  0.184  0.389  0.532-  27 0.98  91 1.63
 132  0.684  0.889  0.532-  28 0.98  92 1.63
 133  0.816  0.611  0.532-  29 0.98  93 1.63
 134  0.316  0.111  0.532-  30 0.98  94 1.63
 135  0.111  0.684  0.532-  31 0.98  95 1.63
 136  0.611  0.184  0.532-  32 0.98  96 1.63
 137  0.889  0.316  0.532-  33 0.98  97 1.63
 138  0.389  0.816  0.532-  34 0.98  98 1.63
 139  0.261  0.410  0.629-  91 1.43
 140  0.761  0.910  0.629-  92 1.43
 141  0.739  0.590  0.629-  93 1.43
 142  0.239  0.090  0.629-  94 1.43
 143  0.090  0.761  0.629-  95 1.43
 144  0.590  0.261  0.629-  96 1.43
 145  0.910  0.239  0.629-  97 1.43
 146  0.410  0.739  0.629-  98 1.43
 
  LATTYP: Found a simple tetragonal cell.
 ALAT       =    21.6154639585
 C/A-ratio  =     0.8178450572
  
  Lattice vectors:
  
 A1 = (  15.2844410228, -15.2844412642,   0.0000000000)
 A2 = (  15.2844412642,  15.2844410228,   0.0000000000)
 A3 = (  -0.0000000000,  -0.0000000000,  17.6781003578)


Analysis of symmetry for initial positions (statically):
=====================================================================
 Subroutine PRICEL returns following result:
 
  LATTYP: Found a simple tetragonal cell.
 ALAT       =    15.2844411435
 C/A-ratio  =     1.1566075718
  
  Lattice vectors:
  
 A1 = (  -0.0000001207, -15.2844411435,   0.0000000000)
 A2 = (  15.2844411435,  -0.0000001207,   0.0000000000)
 A3 = (   0.0000000000,   0.0000000000,  17.6781003578)
 
   2 primitive cells build up your supercell.
 

 Routine SETGRP: Setting up the symmetry group for a 
 simple tetragonal supercell.


 Subroutine GETGRP returns: Found  4 space group operations
 (whereof  4 operations were pure point group operations)
 out of a pool of 16 trial point group operations.


The static configuration has the point symmetry     .


Analysis of symmetry for dynamics (positions and initial velocities):
=====================================================================
 Subroutine PRICEL returns following result:
 
  LATTYP: Found a simple tetragonal cell.
 ALAT       =    15.2844411435
 C/A-ratio  =     1.1566075718
  
  Lattice vectors:
  
 A1 = (  -0.0000001207, -15.2844411435,   0.0000000000)
 A2 = (  15.2844411435,  -0.0000001207,   0.0000000000)
 A3 = (   0.0000000000,   0.0000000000,  17.6781003578)
 
   2 primitive cells build up your supercell.
 

 Routine SETGRP: Setting up the symmetry group for a 
 simple tetragonal supercell.


 Subroutine GETGRP returns: Found  4 space group operations
 (whereof  4 operations were pure point group operations)
 out of a pool of 16 trial point group operations.


The dynamic configuration has the point symmetry     .


Analysis of structural, dynamic, and magnetic symmetry:
=====================================================================
 Subroutine PRICEL returns:
 Original cell was already a primitive cell.
 

 Routine SETGRP: Setting up the symmetry group for a 
 simple tetragonal supercell.


 Subroutine GETGRP returns: Found  4 space group operations
 (whereof  2 operations were pure point group operations)
 out of a pool of 16 trial point group operations.


The overall configuration has the point symmetry C_2 .
 The point group associated with its full space group is C_2 .


 Subroutine INISYM returns: Found  4 space group operations
 (whereof  2 operations are pure point group operations),
 and found     1 'primitive' translations


----------------------------------------------------------------------------------------

                                     Primitive cell                                     

  volume of cell :    8259.7085

  direct lattice vectors                    reciprocal lattice vectors
    15.284441023-15.284441264  0.000000000     0.032713005 -0.032713005 -0.000000000
    15.284441264 15.284441023  0.000000000     0.032713005  0.032713005  0.000000000
    -0.000000000 -0.000000000 17.678100358    -0.000000000 -0.000000000  0.056567164

  length of vectors
    21.615463958 21.615463958 17.678100358     0.046263175  0.046263175  0.056567164

  position of ions in fractional coordinates (direct lattice)
     1.000000000  1.000000000  0.520204586
     0.500000000  0.500000000  0.520204586
     0.079351982  0.246144794  0.407558658
     0.579351982  0.746144794  0.407558658
     0.920648018  0.753855206  0.407558658
     0.420648018  0.253855206  0.407558658
     0.253855206  0.579351982  0.407558658
     0.753855206  0.079351982  0.407558658
     0.746144794  0.420648018  0.407558658
     0.246144794  0.920648018  0.407558658
     0.179134702  0.302053736  0.422711432
     0.679134702  0.802053736  0.422711432
     0.820865298  0.697946264  0.422711432
     0.320865298  0.197946264  0.422711432
     0.197946264  0.679134702  0.422711432
     0.697946264  0.179134702  0.422711432
     0.802053736  0.320865298  0.422711432
     0.302053736  0.820865298  0.422711432
     0.649510187  0.598568816  0.548798279
     0.149510187  0.098568816  0.548798279
     0.350489813  0.401431184  0.548798279
     0.850489813  0.901431184  0.548798279
     0.901431184  0.149510187  0.548798279
     0.401431184  0.649510187  0.548798279
     0.098568816  0.850489813  0.548798279
     0.598568816  0.350489813  0.548798279
     0.146870012  0.362196667  0.532930529
     0.646870012  0.862196667  0.532930529
     0.853129988  0.637803333  0.532930529
     0.353129988  0.137803333  0.532930529
     0.137803333  0.646870012  0.532930529
     0.637803333  0.146870012  0.532930529
     0.862196667  0.353129988  0.532930529
     0.362196667  0.853129988  0.532930529
     0.108910322  0.168752734  0.476453766
     0.608910322  0.668752734  0.476453766
     0.891089678  0.831247266  0.476453766
     0.391089678  0.331247266  0.476453766
     0.331247266  0.608910322  0.476453766
     0.831247266  0.108910322  0.476453766
     0.668752734  0.391089678  0.476453766
     0.168752734  0.891089678  0.476453766
     0.116236521  0.226555199  0.442097804
     0.616236521  0.726555199  0.442097804
     0.883763479  0.773444801  0.442097804
     0.383763479  0.273444801  0.442097804
     0.273444801  0.616236521  0.442097804
     0.773444801  0.116236521  0.442097804
     0.726555199  0.383763479  0.442097804
     0.226555199  0.883763479  0.442097804
     0.171747492  0.257996243  0.451352383
     0.671747492  0.757996243  0.451352383
     0.828252508  0.742003757  0.451352383
     0.328252508  0.242003757  0.451352383
     0.242003757  0.671747492  0.451352383
     0.742003757  0.171747492  0.451352383
     0.757996243  0.328252508  0.451352383
     0.257996243  0.828252508  0.451352383
     0.220016158  0.233159382  0.495076208
     0.720016158  0.733159382  0.495076208
     0.779983842  0.766840618  0.495076208
     0.279983842  0.266840618  0.495076208
     0.266840618  0.720016158  0.495076208
     0.766840618  0.220016158  0.495076208
     0.733159382  0.279983842  0.495076208
     0.233159382  0.779983842  0.495076208
     0.710630229  0.675582390  0.530215377
     0.210630229  0.175582390  0.530215377
     0.289369771  0.324417610  0.530215377
     0.789369771  0.824417610  0.530215377
     0.824417610  0.210630229  0.530215377
     0.324417610  0.710630229  0.530215377
     0.175582390  0.789369771  0.530215377
     0.675582390  0.289369771  0.530215377
     0.655198941  0.643185549  0.521406307
     0.155198941  0.143185549  0.521406307
     0.344801059  0.356814451  0.521406307
     0.844801059  0.856814451  0.521406307
     0.856814451  0.155198941  0.521406307
     0.356814451  0.655198941  0.521406307
     0.143185549  0.844801059  0.521406307
     0.643185549  0.344801059  0.521406307
     0.039824003  0.129279035  0.452440239
     0.539824003  0.629279035  0.452440239
     0.960175997  0.870720965  0.452440239
     0.460175997  0.370720965  0.452440239
     0.370720965  0.539824003  0.452440239
     0.870720965  0.039824003  0.452440239
     0.629279035  0.460175997  0.452440239
     0.129279035  0.960175997  0.452440239
     0.232668496  0.358618215  0.591408264
     0.732668496  0.858618215  0.591408264
     0.767331504  0.641381785  0.591408264
     0.267331504  0.141381785  0.591408264
     0.141381785  0.732668496  0.591408264
     0.641381785  0.232668496  0.591408264
     0.858618215  0.267331504  0.591408264
     0.358618215  0.767331504  0.591408264
     0.041708535  0.071954161  0.509515584
     0.541708535  0.571954161  0.509515584
     0.958291465  0.928045839  0.509515584
     0.458291465  0.428045839  0.509515584
     0.428045839  0.541708535  0.509515584
     0.928045839  0.041708535  0.509515584
     0.571954161  0.458291465  0.509515584
     0.071954161  0.958291465  0.509515584
     0.988040727  0.167966538  0.472140948
     0.488040727  0.667966538  0.472140948
     0.011959273  0.832033462  0.472140948
     0.511959273  0.332033462  0.472140948
     0.332033462  0.488040727  0.472140948
     0.832033462  0.988040727  0.472140948
     0.667966538  0.511959273  0.472140948
     0.167966538  0.011959273  0.472140948
     0.045424311  0.105318309  0.377084147
     0.545424311  0.605318309  0.377084147
     0.954575689  0.894681691  0.377084147
     0.454575689  0.394681691  0.377084147
     0.394681691  0.545424311  0.377084147
     0.894681691  0.045424311  0.377084147
     0.605318309  0.454575689  0.377084147
     0.105318309  0.954575689  0.377084147
     0.200308144  0.310498580  0.631252804
     0.700308144  0.810498580  0.631252804
     0.799691856  0.689501420  0.631252804
     0.299691856  0.189501420  0.631252804
     0.189501420  0.700308144  0.631252804
     0.689501420  0.200308144  0.631252804
     0.810498580  0.299691856  0.631252804
     0.310498580  0.799691856  0.631252804
     0.183752353  0.388576217  0.531650311
     0.683752353  0.888576217  0.531650311
     0.816247647  0.611423783  0.531650311
     0.316247647  0.111423783  0.531650311
     0.111423783  0.683752353  0.531650311
     0.611423783  0.183752353  0.531650311
     0.888576217  0.316247647  0.531650311
     0.388576217  0.816247647  0.531650311
     0.261407236  0.409871993  0.628695814
     0.761407236  0.909871993  0.628695814
     0.738592764  0.590128007  0.628695814
     0.238592764  0.090128007  0.628695814
     0.090128007  0.761407236  0.628695814
     0.590128007  0.261407236  0.628695814
     0.909871993  0.238592764  0.628695814
     0.409871993  0.738592764  0.628695814

  ion indices of the primitive-cell ions
   primitive index   ion index
                 1           1
                 2           2
                 3           3
                 4           4
                 5           5
                 6           6
                 7           7
                 8           8
                 9           9
                10          10
                11          11
                12          12
                13          13
                14          14
                15          15
                16          16
                17          17
                18          18
                19          19
                20          20
                21          21
                22          22
                23          23
                24          24
                25          25
                26          26
                27          27
                28          28
                29          29
                30          30
                31          31
                32          32
                33          33
                34          34
                35          35
                36          36
                37          37
                38          38
                39          39
                40          40
                41          41
                42          42
                43          43
                44          44
                45          45
                46          46
                47          47
                48          48
                49          49
                50          50
                51          51
                52          52
                53          53
                54          54
                55          55
                56          56
                57          57
                58          58
                59          59
                60          60
                61          61
                62          62
                63          63
                64          64
                65          65
                66          66
                67          67
                68          68
                69          69
                70          70
                71          71
                72          72
                73          73
                74          74
                75          75
                76          76
                77          77
                78          78
                79          79
                80          80
                81          81
                82          82
                83          83
                84          84
                85          85
                86          86
                87          87
                88          88
                89          89
                90          90
                91          91
                92          92
                93          93
                94          94
                95          95
                96          96
                97          97
                98          98
                99          99
               100         100
               101         101
               102         102
               103         103
               104         104
               105         105
               106         106
               107         107
               108         108
               109         109
               110         110
               111         111
               112         112
               113         113
               114         114
               115         115
               116         116
               117         117
               118         118
               119         119
               120         120
               121         121
               122         122
               123         123
               124         124
               125         125
               126         126
               127         127
               128         128
               129         129
               130         130
               131         131
               132         132
               133         133
               134         134
               135         135
               136         136
               137         137
               138         138
               139         139
               140         140
               141         141
               142         142
               143         143
               144         144
               145         145
               146         146

----------------------------------------------------------------------------------------

 
 
 KPOINTS: K-Path Generated by VASPKIT.            

Interpolating k-points between supplied coordinates.

 Line segments in fractional coordinates (reciprocal lattice):
    0.500000  0.500000  0.000000  ...  0.500000  0.000000  0.000000
    0.500000  0.000000  0.000000  ...  1.000000  0.000000  0.000000
    1.000000  0.000000  0.000000  ...  0.500000  0.500000  0.000000
    0.500000  0.500000  0.000000  ...  1.000000  1.000000  0.000000
    1.000000  1.000000  0.000000  ...  1.000000  0.500000  0.000000
    1.000000  0.500000  0.000000  ...  0.500000  0.500000  0.000000

 Generated    10 points on each line segment, for a total of     60 k-points:

 Following reciprocal coordinates:
            Coordinates               Weight
  0.500000  0.500000  0.000000      0.016667
  0.500000  0.444444  0.000000      0.016667
  0.500000  0.388889  0.000000      0.016667
  0.500000  0.333333  0.000000      0.016667
  0.500000  0.277778  0.000000      0.016667
  0.500000  0.222222  0.000000      0.016667
  0.500000  0.166667  0.000000      0.016667
  0.500000  0.111111  0.000000      0.016667
  0.500000  0.055556  0.000000      0.016667
  0.500000  0.000000  0.000000      0.016667
  0.500000  0.000000  0.000000      0.016667
  0.555556  0.000000  0.000000      0.016667
  0.611111  0.000000  0.000000      0.016667
  0.666667  0.000000  0.000000      0.016667
  0.722222  0.000000  0.000000      0.016667
  0.777778  0.000000  0.000000      0.016667
  0.833333  0.000000  0.000000      0.016667
  0.888889  0.000000  0.000000      0.016667
  0.944444  0.000000  0.000000      0.016667
  1.000000  0.000000  0.000000      0.016667
  1.000000  0.000000  0.000000      0.016667
  0.944444  0.055556  0.000000      0.016667
  0.888889  0.111111  0.000000      0.016667
  0.833333  0.166667  0.000000      0.016667
  0.777778  0.222222  0.000000      0.016667
  0.722222  0.277778  0.000000      0.016667
  0.666667  0.333333  0.000000      0.016667
  0.611111  0.388889  0.000000      0.016667
  0.555556  0.444444  0.000000      0.016667
  0.500000  0.500000  0.000000      0.016667
  0.500000  0.500000  0.000000      0.016667
  0.555556  0.555556  0.000000      0.016667
  0.611111  0.611111  0.000000      0.016667
  0.666667  0.666667  0.000000      0.016667
  0.722222  0.722222  0.000000      0.016667
  0.777778  0.777778  0.000000      0.016667
  0.833333  0.833333  0.000000      0.016667
  0.888889  0.888889  0.000000      0.016667
  0.944444  0.944444  0.000000      0.016667
  1.000000  1.000000  0.000000      0.016667
  1.000000  1.000000  0.000000      0.016667
  1.000000  0.944444  0.000000      0.016667
  1.000000  0.888889  0.000000      0.016667
  1.000000  0.833333  0.000000      0.016667
  1.000000  0.777778  0.000000      0.016667
  1.000000  0.722222  0.000000      0.016667
  1.000000  0.666667  0.000000      0.016667
  1.000000  0.611111  0.000000      0.016667
  1.000000  0.555556  0.000000      0.016667
  1.000000  0.500000  0.000000      0.016667
  1.000000  0.500000  0.000000      0.016667
  0.944444  0.500000  0.000000      0.016667
  0.888889  0.500000  0.000000      0.016667
  0.833333  0.500000  0.000000      0.016667
  0.777778  0.500000  0.000000      0.016667
  0.722222  0.500000  0.000000      0.016667
  0.666667  0.500000  0.000000      0.016667
  0.611111  0.500000  0.000000      0.016667
  0.555556  0.500000  0.000000      0.016667
  0.500000  0.500000  0.000000      0.016667

 Following cartesian coordinates:
            Coordinates               Weight
  0.032713 -0.000000  0.000000      0.016667
  0.030896 -0.001817  0.000000      0.016667
  0.029078 -0.003635  0.000000      0.016667
  0.027261 -0.005452  0.000000      0.016667
  0.025443 -0.007270  0.000000      0.016667
  0.023626 -0.009087  0.000000      0.016667
  0.021809 -0.010904  0.000000      0.016667
  0.019991 -0.012722  0.000000      0.016667
  0.018174 -0.014539  0.000000      0.016667
  0.016357 -0.016357 -0.000000      0.016667
  0.016357 -0.016357 -0.000000      0.016667
  0.018174 -0.018174 -0.000000      0.016667
  0.019991 -0.019991 -0.000000      0.016667
  0.021809 -0.021809 -0.000000      0.016667
  0.023626 -0.023626 -0.000000      0.016667
  0.025443 -0.025443 -0.000000      0.016667
  0.027261 -0.027261 -0.000000      0.016667
  0.029078 -0.029078 -0.000000      0.016667
  0.030896 -0.030896 -0.000000      0.016667
  0.032713 -0.032713 -0.000000      0.016667
  0.032713 -0.032713 -0.000000      0.016667
  0.032713 -0.029078  0.000000      0.016667
  0.032713 -0.025443  0.000000      0.016667
  0.032713 -0.021809  0.000000      0.016667
  0.032713 -0.018174  0.000000      0.016667
  0.032713 -0.014539  0.000000      0.016667
  0.032713 -0.010904  0.000000      0.016667
  0.032713 -0.007270  0.000000      0.016667
  0.032713 -0.003635  0.000000      0.016667
  0.032713 -0.000000  0.000000      0.016667
  0.032713 -0.000000  0.000000      0.016667
  0.036348 -0.000000  0.000000      0.016667
  0.039983 -0.000000  0.000000      0.016667
  0.043617 -0.000000  0.000000      0.016667
  0.047252 -0.000000  0.000000      0.016667
  0.050887 -0.000000  0.000000      0.016667
  0.054522 -0.000000  0.000000      0.016667
  0.058156 -0.000000  0.000000      0.016667
  0.061791 -0.000000  0.000000      0.016667
  0.065426 -0.000000  0.000000      0.016667
  0.065426 -0.000000  0.000000      0.016667
  0.063609 -0.001817  0.000000      0.016667
  0.061791 -0.003635  0.000000      0.016667
  0.059974 -0.005452  0.000000      0.016667
  0.058156 -0.007270  0.000000      0.016667
  0.056339 -0.009087  0.000000      0.016667
  0.054522 -0.010904  0.000000      0.016667
  0.052704 -0.012722  0.000000      0.016667
  0.050887 -0.014539  0.000000      0.016667
  0.049070 -0.016357  0.000000      0.016667
  0.049070 -0.016357  0.000000      0.016667
  0.047252 -0.014539  0.000000      0.016667
  0.045435 -0.012722  0.000000      0.016667
  0.043617 -0.010904  0.000000      0.016667
  0.041800 -0.009087  0.000000      0.016667
  0.039983 -0.007270  0.000000      0.016667
  0.038165 -0.005452  0.000000      0.016667
  0.036348 -0.003635  0.000000      0.016667
  0.034530 -0.001817  0.000000      0.016667
  0.032713 -0.000000  0.000000      0.016667
 


--------------------------------------------------------------------------------------------------------




 Dimension of arrays:
   k-points           NKPTS =     60   k-points in BZ     NKDIM =     60   number of bands    NBANDS=    392
   number of dos      NEDOS =    301   number of ions     NIONS =    146
   non local maximal  LDIM  =      6   non local SUM 2l+1 LMDIM =     18
   total plane-waves  NPLWV = ******
   max r-space proj   IRMAX =   1658   max aug-charges    IRDMAX=   6144
   dimension x,y,z NGX =   120 NGY =  120 NGZ =   98
   dimension x,y,z NGXF=   240 NGYF=  240 NGZF=  196
   support grid    NGXF=   240 NGYF=  240 NGZF=  196
   ions per type =               2  32  48  16  48
   NGX,Y,Z   is equivalent  to a cutoff of   9.23,  9.23,  9.22 a.u.
   NGXF,Y,Z  is equivalent  to a cutoff of  18.46, 18.46, 18.43 a.u.

 SYSTEM =  unknown system                          
 POSCAR =  Cr2 H32 C48 S16 O48                     

 Startparameter for this run:
   NWRITE =      2    write-flag & timer
   PREC   = normal    normal or accurate (medium, high low for compatibility)
   ISTART =      0    job   : 0-new  1-cont  2-samecut
   ICHARG =     11    charge: 1-file 2-atom 10-const
   ISPIN  =      2    spin polarized calculation?
   LNONCOLLINEAR =      F non collinear calculations
   LSORBIT =      F    spin-orbit coupling
   INIWAV =      1    electr: 0-lowe 1-rand  2-diag
   LASPH  =      F    aspherical Exc in radial PAW
 Electronic Relaxation 1
   ENCUT  =  500.0 eV  36.75 Ry    6.06 a.u.  39.41 39.41 32.23*2*pi/ulx,y,z
   ENINI  =  500.0     initial cutoff
   ENAUG  =  644.9 eV  augmentation charge cutoff
   NELM   =    200;   NELMIN=  2; NELMDL=  0     # of ELM steps 
   EDIFF  = 0.1E-04   stopping-criterion for ELM
   LREAL  =      T    real-space projection
   NLSPLINE    = F    spline interpolate recip. space projectors
   LCOMPAT=      F    compatible to vasp.4.4
   GGA_COMPAT  = T    GGA compatible to vasp.4.4-vasp.4.6
   LMAXPAW     = -100 max onsite density
   LMAXMIX     =    4 max onsite mixed and CHGCAR
   VOSKOWN=      0    Vosko Wilk Nusair interpolation
   ROPT   =   -0.00050  -0.00050  -0.00050  -0.00050
   ROPT   =   -0.00050
 Ionic relaxation
   EDIFFG = -.1E-01   stopping-criterion for IOM
   NSW    =      0    number of steps for IOM
   NBLOCK =      1;   KBLOCK =      1    inner block; outer block 
   IBRION =     -1    ionic relax: 0-MD 1-quasi-New 2-CG
   NFREE  =      0    steps in history (QN), initial steepest desc. (CG)
   ISIF   =      2    stress and relaxation
   IWAVPR =     10    prediction:  0-non 1-charg 2-wave 3-comb
   ISYM   =      2    0-nonsym 1-usesym 2-fastsym
   LCORR  =      T    Harris-Foulkes like correction to forces

   POTIM  = 0.5000    time-step for ionic-motion
   TEIN   =    0.0    initial temperature
   TEBEG  =    0.0;   TEEND  =   0.0 temperature during run
   SMASS  =  -3.00    Nose mass-parameter (am)
   estimated Nose-frequenzy (Omega)   =  0.10E-29 period in steps = 0.13E+47 mass=  -0.107E-25a.u.
   SCALEE = 1.0000    scale energy and forces
   NPACO  =    256;   APACO  = 10.0  distance and # of slots for P.C.
   PSTRESS=    0.0 pullay stress

  Mass of Ions in am
   POMASS =  52.00  1.00 12.01 32.07 16.00
  Ionic Valenz
   ZVAL   =  12.00  1.00  4.00  6.00  6.00
  Atomic Wigner-Seitz radii
   RWIGS  =  -1.00 -1.00 -1.00 -1.00 -1.00
  virtual crystal weights 
   VCA    =   1.00  1.00  1.00  1.00  1.00
   NELECT =     632.0000    total number of electrons
   NUPDOWN=      -1.0000    fix difference up-down

 DOS related values:
   EMIN   =  10.00;   EMAX   =-10.00  energy-range for DOS
   EFERMI =   0.00
   ISMEAR =     1;   SIGMA  =   0.20  broadening in eV -4-tet -1-fermi 0-gaus

 Electronic relaxation 2 (details)
   IALGO  =     68    algorithm
   LDIAG  =      T    sub-space diagonalisation (order eigenvalues)
   LSUBROT=      F    optimize rotation matrix (better conditioning)
   TURBO    =      0    0=normal 1=particle mesh
   IRESTART =      0    0=no restart 2=restart with 2 vectors
   NREBOOT  =      0    no. of reboots
   NMIN     =      0    reboot dimension
   EREF     =   0.00    reference energy to select bands
   IMIX   =      4    mixing-type and parameters
     AMIX     =   0.20;   BMIX     =  0.00
     AMIX_MAG =   0.80;   BMIX_MAG =  0.00
     AMIN     =   0.10
     WC   =   100.;   INIMIX=   1;  MIXPRE=   1;  MAXMIX= -45

 Intra band minimization:
   WEIMIN = 0.0000     energy-eigenvalue tresh-hold
   EBREAK =  0.64E-08  absolut break condition
   DEPER  =   0.30     relativ break condition  

   TIME   =   0.40     timestep for ELM

  volume/ion in A,a.u.               =      56.57       381.78
  Fermi-wavevector in a.u.,A,eV,Ry     =   0.695012  1.313382  6.572180  0.483042
  Thomas-Fermi vector in A             =   1.777665
 
 Write flags
   LWAVE        =      F    write WAVECAR
   LDOWNSAMPLE  =      F    k-point downsampling of WAVECAR
   LCHARG       =      F    write CHGCAR
   LVTOT        =      T    write LOCPOT, total local potential
   LVHAR        =      F    write LOCPOT, Hartree potential only
   LELF         =      F    write electronic localiz. function (ELF)
   LORBIT       =     11    0 simple, 1 ext, 2 COOP (PROOUT), +10 PAW based schemes


 Dipole corrections
   LMONO  =      F    monopole corrections only (constant potential shift)
   LDIPOL =      F    correct potential (dipole corrections)
   IDIPOL =      0    1-x, 2-y, 3-z, 4-all directions 
   EPSILON=  1.0000000 bulk dielectric constant

 LDA+U is selected, type is set to LDAUTYPE =  2
   angular momentum for each species LDAUL =     2   -1   -1   -1   -1
   U (eV)           for each species LDAUU =   3.0  0.0  0.0  0.0  0.0
   J (eV)           for each species LDAUJ =   1.0  0.0  0.0  0.0  0.0
 Exchange correlation treatment:
   GGA     =    --    GGA type
   LEXCH   =     8    internal setting for exchange type
   LIBXC   =     F    Libxc                    
   VOSKOWN =     0    Vosko Wilk Nusair interpolation
   LHFCALC =     F    Hartree Fock is set to
   LHFONE  =     F    Hartree Fock one center treatment
   AEXX    =    0.0000 exact exchange contribution

 Linear response parameters
   LEPSILON=     F    determine dielectric tensor
   LRPA    =     F    only Hartree local field effects (RPA)
   LNABLA  =     F    use nabla operator in PAW spheres
   LVEL    =     F    velocity operator in full k-point grid
   CSHIFT  =0.1000    complex shift for real part using Kramers Kronig
   OMEGAMAX=  -1.0    maximum frequency
   DEG_THRESHOLD= 0.2000000E-02 threshold for treating states as degnerate
   RTIME   =   -0.100 relaxation time in fs
  (WPLASMAI=    0.000 imaginary part of plasma frequency in eV, 0.658/RTIME)
   DFIELD  = 0.0000000 0.0000000 0.0000000 field for delta impulse in time
 
  Optional k-point grid parameters
   LKPOINTS_OPT  =     F    use optional k-point grid
   KPOINTS_OPT_MODE=     1    mode for optional k-point grid
 
 Orbital magnetization related:
   ORBITALMAG=     F  switch on orbital magnetization
   LCHIMAG   =     F  perturbation theory with respect to B field
   DQ        =  0.001000  dq finite difference perturbation B field
   LLRAUG    =     F  two centre corrections for induced B field



--------------------------------------------------------------------------------------------------------


 Static calculation
 charge density and potential remain constant during run
 spin polarized calculation
 RMM-DIIS sequential band-by-band and
  variant of blocked Davidson during initial phase
 perform sub-space diagonalisation
    before iterative eigenvector-optimisation
 no mixing
 using additional bands           76
 real space projection scheme for non local part
 use partial core corrections
 calculate Harris-corrections to forces 
   (improved forces if not selfconsistent)
 use gradient corrections 
 WARNING: stress and forces are not correct
  (second derivative of E(xc) not defined)
 use of overlap-Matrix (Vanderbilt PP)
 Methfessel and Paxton  Order N= 1 SIGMA  =   0.20


--------------------------------------------------------------------------------------------------------


  energy-cutoff  :      500.00
  volume of cell :     8259.71
      direct lattice vectors                 reciprocal lattice vectors
    15.284441023-15.284441264  0.000000000     0.032713005 -0.032713005 -0.000000000
    15.284441264 15.284441023  0.000000000     0.032713005  0.032713005  0.000000000
    -0.000000000 -0.000000000 17.678100358    -0.000000000 -0.000000000  0.056567164

  length of vectors
    21.615463958 21.615463958 17.678100358     0.046263175  0.046263175  0.056567164


 
 k-points in units of 2pi/SCALE and weight: K-Path Generated by VASPKIT.            
   0.03271301 -0.00000000  0.00000000       0.017
   0.03089562 -0.00181739  0.00000000       0.017
   0.02907823 -0.00363478  0.00000000       0.017
   0.02726084 -0.00545217  0.00000000       0.017
   0.02544345 -0.00726956  0.00000000       0.017
   0.02362606 -0.00908695  0.00000000       0.017
   0.02180867 -0.01090434  0.00000000       0.017
   0.01999128 -0.01272172  0.00000000       0.017
   0.01817389 -0.01453911  0.00000000       0.017
   0.01635650 -0.01635650 -0.00000000       0.017
   0.01635650 -0.01635650 -0.00000000       0.017
   0.01817389 -0.01817389 -0.00000000       0.017
   0.01999128 -0.01999128 -0.00000000       0.017
   0.02180867 -0.02180867 -0.00000000       0.017
   0.02362606 -0.02362606 -0.00000000       0.017
   0.02544345 -0.02544345 -0.00000000       0.017
   0.02726084 -0.02726084 -0.00000000       0.017
   0.02907823 -0.02907823 -0.00000000       0.017
   0.03089562 -0.03089562 -0.00000000       0.017
   0.03271300 -0.03271301 -0.00000000       0.017
   0.03271300 -0.03271301 -0.00000000       0.017
   0.03271300 -0.02907823  0.00000000       0.017
   0.03271300 -0.02544345  0.00000000       0.017
   0.03271300 -0.02180867  0.00000000       0.017
   0.03271300 -0.01817389  0.00000000       0.017
   0.03271300 -0.01453911  0.00000000       0.017
   0.03271300 -0.01090434  0.00000000       0.017
   0.03271300 -0.00726956  0.00000000       0.017
   0.03271301 -0.00363478  0.00000000       0.017
   0.03271301 -0.00000000  0.00000000       0.017
   0.03271301 -0.00000000  0.00000000       0.017
   0.03634778 -0.00000000  0.00000000       0.017
   0.03998256 -0.00000000  0.00000000       0.017
   0.04361734 -0.00000000  0.00000000       0.017
   0.04725212 -0.00000000  0.00000000       0.017
   0.05088690 -0.00000000  0.00000000       0.017
   0.05452168 -0.00000000  0.00000000       0.017
   0.05815645 -0.00000000  0.00000000       0.017
   0.06179123 -0.00000000  0.00000000       0.017
   0.06542601 -0.00000000  0.00000000       0.017
   0.06542601 -0.00000000  0.00000000       0.017
   0.06360862 -0.00181739  0.00000000       0.017
   0.06179123 -0.00363478  0.00000000       0.017
   0.05997384 -0.00545217  0.00000000       0.017
   0.05815645 -0.00726956  0.00000000       0.017
   0.05633906 -0.00908695  0.00000000       0.017
   0.05452167 -0.01090434  0.00000000       0.017
   0.05270429 -0.01272172  0.00000000       0.017
   0.05088690 -0.01453911  0.00000000       0.017
   0.04906951 -0.01635650  0.00000000       0.017
   0.04906951 -0.01635650  0.00000000       0.017
   0.04725212 -0.01453911  0.00000000       0.017
   0.04543473 -0.01272172  0.00000000       0.017
   0.04361734 -0.01090434  0.00000000       0.017
   0.04179995 -0.00908695  0.00000000       0.017
   0.03998256 -0.00726956  0.00000000       0.017
   0.03816517 -0.00545217  0.00000000       0.017
   0.03634778 -0.00363478  0.00000000       0.017
   0.03453039 -0.00181739  0.00000000       0.017
   0.03271301 -0.00000000  0.00000000       0.017
 
 k-points in reciprocal lattice and weights: K-Path Generated by VASPKIT.            
   0.50000000  0.50000000  0.00000000       0.017
   0.50000000  0.44444444  0.00000000       0.017
   0.50000000  0.38888889  0.00000000       0.017
   0.50000000  0.33333333  0.00000000       0.017
   0.50000000  0.27777778  0.00000000       0.017
   0.50000000  0.22222222  0.00000000       0.017
   0.50000000  0.16666667  0.00000000       0.017
   0.50000000  0.11111111  0.00000000       0.017
   0.50000000  0.05555556  0.00000000       0.017
   0.50000000  0.00000000  0.00000000       0.017
   0.50000000  0.00000000  0.00000000       0.017
   0.55555556  0.00000000  0.00000000       0.017
   0.61111111  0.00000000  0.00000000       0.017
   0.66666667  0.00000000  0.00000000       0.017
   0.72222222  0.00000000  0.00000000       0.017
   0.77777778  0.00000000  0.00000000       0.017
   0.83333333  0.00000000  0.00000000       0.017
   0.88888889  0.00000000  0.00000000       0.017
   0.94444444  0.00000000  0.00000000       0.017
   1.00000000  0.00000000  0.00000000       0.017
   1.00000000  0.00000000  0.00000000       0.017
   0.94444444  0.05555556  0.00000000       0.017
   0.88888889  0.11111111  0.00000000       0.017
   0.83333333  0.16666667  0.00000000       0.017
   0.77777778  0.22222222  0.00000000       0.017
   0.72222222  0.27777778  0.00000000       0.017
   0.66666667  0.33333333  0.00000000       0.017
   0.61111111  0.38888889  0.00000000       0.017
   0.55555556  0.44444444  0.00000000       0.017
   0.50000000  0.50000000  0.00000000       0.017
   0.50000000  0.50000000  0.00000000       0.017
   0.55555556  0.55555556  0.00000000       0.017
   0.61111111  0.61111111  0.00000000       0.017
   0.66666667  0.66666667  0.00000000       0.017
   0.72222222  0.72222222  0.00000000       0.017
   0.77777778  0.77777778  0.00000000       0.017
   0.83333333  0.83333333  0.00000000       0.017
   0.88888889  0.88888889  0.00000000       0.017
   0.94444444  0.94444444  0.00000000       0.017
   1.00000000  1.00000000  0.00000000       0.017
   1.00000000  1.00000000  0.00000000       0.017
   1.00000000  0.94444444  0.00000000       0.017
   1.00000000  0.88888889  0.00000000       0.017
   1.00000000  0.83333333  0.00000000       0.017
   1.00000000  0.77777778  0.00000000       0.017
   1.00000000  0.72222222  0.00000000       0.017
   1.00000000  0.66666667  0.00000000       0.017
   1.00000000  0.61111111  0.00000000       0.017
   1.00000000  0.55555556  0.00000000       0.017
   1.00000000  0.50000000  0.00000000       0.017
   1.00000000  0.50000000  0.00000000       0.017
   0.94444444  0.50000000  0.00000000       0.017
   0.88888889  0.50000000  0.00000000       0.017
   0.83333333  0.50000000  0.00000000       0.017
   0.77777778  0.50000000  0.00000000       0.017
   0.72222222  0.50000000  0.00000000       0.017
   0.66666667  0.50000000  0.00000000       0.017
   0.61111111  0.50000000  0.00000000       0.017
   0.55555556  0.50000000  0.00000000       0.017
   0.50000000  0.50000000  0.00000000       0.017
 
 position of ions in fractional coordinates (direct lattice) 
   0.00000000  0.00000000  0.52020459
   0.50000000  0.50000000  0.52020459
   0.07935198  0.24614479  0.40755866
   0.57935198  0.74614479  0.40755866
   0.92064802  0.75385521  0.40755866
   0.42064802  0.25385521  0.40755866
   0.25385521  0.57935198  0.40755866
   0.75385521  0.07935198  0.40755866
   0.74614479  0.42064802  0.40755866
   0.24614479  0.92064802  0.40755866
   0.17913470  0.30205374  0.42271143
   0.67913470  0.80205374  0.42271143
   0.82086530  0.69794626  0.42271143
   0.32086530  0.19794626  0.42271143
   0.19794626  0.67913470  0.42271143
   0.69794626  0.17913470  0.42271143
   0.80205374  0.32086530  0.42271143
   0.30205374  0.82086530  0.42271143
   0.64951019  0.59856882  0.54879828
   0.14951019  0.09856882  0.54879828
   0.35048981  0.40143118  0.54879828
   0.85048981  0.90143118  0.54879828
   0.90143118  0.14951019  0.54879828
   0.40143118  0.64951019  0.54879828
   0.09856882  0.85048981  0.54879828
   0.59856882  0.35048981  0.54879828
   0.14687001  0.36219667  0.53293053
   0.64687001  0.86219667  0.53293053
   0.85312999  0.63780333  0.53293053
   0.35312999  0.13780333  0.53293053
   0.13780333  0.64687001  0.53293053
   0.63780333  0.14687001  0.53293053
   0.86219667  0.35312999  0.53293053
   0.36219667  0.85312999  0.53293053
   0.10891032  0.16875273  0.47645377
   0.60891032  0.66875273  0.47645377
   0.89108968  0.83124727  0.47645377
   0.39108968  0.33124727  0.47645377
   0.33124727  0.60891032  0.47645377
   0.83124727  0.10891032  0.47645377
   0.66875273  0.39108968  0.47645377
   0.16875273  0.89108968  0.47645377
   0.11623652  0.22655520  0.44209780
   0.61623652  0.72655520  0.44209780
   0.88376348  0.77344480  0.44209780
   0.38376348  0.27344480  0.44209780
   0.27344480  0.61623652  0.44209780
   0.77344480  0.11623652  0.44209780
   0.72655520  0.38376348  0.44209780
   0.22655520  0.88376348  0.44209780
   0.17174749  0.25799624  0.45135238
   0.67174749  0.75799624  0.45135238
   0.82825251  0.74200376  0.45135238
   0.32825251  0.24200376  0.45135238
   0.24200376  0.67174749  0.45135238
   0.74200376  0.17174749  0.45135238
   0.75799624  0.32825251  0.45135238
   0.25799624  0.82825251  0.45135238
   0.22001616  0.23315938  0.49507621
   0.72001616  0.73315938  0.49507621
   0.77998384  0.76684062  0.49507621
   0.27998384  0.26684062  0.49507621
   0.26684062  0.72001616  0.49507621
   0.76684062  0.22001616  0.49507621
   0.73315938  0.27998384  0.49507621
   0.23315938  0.77998384  0.49507621
   0.71063023  0.67558239  0.53021538
   0.21063023  0.17558239  0.53021538
   0.28936977  0.32441761  0.53021538
   0.78936977  0.82441761  0.53021538
   0.82441761  0.21063023  0.53021538
   0.32441761  0.71063023  0.53021538
   0.17558239  0.78936977  0.53021538
   0.67558239  0.28936977  0.53021538
   0.65519894  0.64318555  0.52140631
   0.15519894  0.14318555  0.52140631
   0.34480106  0.35681445  0.52140631
   0.84480106  0.85681445  0.52140631
   0.85681445  0.15519894  0.52140631
   0.35681445  0.65519894  0.52140631
   0.14318555  0.84480106  0.52140631
   0.64318555  0.34480106  0.52140631
   0.03982400  0.12927904  0.45244024
   0.53982400  0.62927904  0.45244024
   0.96017600  0.87072096  0.45244024
   0.46017600  0.37072096  0.45244024
   0.37072096  0.53982400  0.45244024
   0.87072096  0.03982400  0.45244024
   0.62927904  0.46017600  0.45244024
   0.12927904  0.96017600  0.45244024
   0.23266850  0.35861821  0.59140826
   0.73266850  0.85861821  0.59140826
   0.76733150  0.64138179  0.59140826
   0.26733150  0.14138179  0.59140826
   0.14138179  0.73266850  0.59140826
   0.64138179  0.23266850  0.59140826
   0.85861821  0.26733150  0.59140826
   0.35861821  0.76733150  0.59140826
   0.04170854  0.07195416  0.50951558
   0.54170854  0.57195416  0.50951558
   0.95829146  0.92804584  0.50951558
   0.45829146  0.42804584  0.50951558
   0.42804584  0.54170854  0.50951558
   0.92804584  0.04170854  0.50951558
   0.57195416  0.45829146  0.50951558
   0.07195416  0.95829146  0.50951558
   0.98804073  0.16796654  0.47214095
   0.48804073  0.66796654  0.47214095
   0.01195927  0.83203346  0.47214095
   0.51195927  0.33203346  0.47214095
   0.33203346  0.48804073  0.47214095
   0.83203346  0.98804073  0.47214095
   0.66796654  0.51195927  0.47214095
   0.16796654  0.01195927  0.47214095
   0.04542431  0.10531831  0.37708415
   0.54542431  0.60531831  0.37708415
   0.95457569  0.89468169  0.37708415
   0.45457569  0.39468169  0.37708415
   0.39468169  0.54542431  0.37708415
   0.89468169  0.04542431  0.37708415
   0.60531831  0.45457569  0.37708415
   0.10531831  0.95457569  0.37708415
   0.20030814  0.31049858  0.63125280
   0.70030814  0.81049858  0.63125280
   0.79969186  0.68950142  0.63125280
   0.29969186  0.18950142  0.63125280
   0.18950142  0.70030814  0.63125280
   0.68950142  0.20030814  0.63125280
   0.81049858  0.29969186  0.63125280
   0.31049858  0.79969186  0.63125280
   0.18375235  0.38857622  0.53165031
   0.68375235  0.88857622  0.53165031
   0.81624765  0.61142378  0.53165031
   0.31624765  0.11142378  0.53165031
   0.11142378  0.68375235  0.53165031
   0.61142378  0.18375235  0.53165031
   0.88857622  0.31624765  0.53165031
   0.38857622  0.81624765  0.53165031
   0.26140724  0.40987199  0.62869581
   0.76140724  0.90987199  0.62869581
   0.73859276  0.59012801  0.62869581
   0.23859276  0.09012801  0.62869581
   0.09012801  0.76140724  0.62869581
   0.59012801  0.26140724  0.62869581
   0.90987199  0.23859276  0.62869581
   0.40987199  0.73859276  0.62869581
 
 position of ions in cartesian coordinates  (Angst):
  -0.00000000 -0.00000000  9.19622887
  15.28444114 -0.00000012  9.19622887
   4.97503633  2.54933487  7.20486286
  20.25947747  2.54933475  7.20486286
  25.59384596 -2.54933512  7.20486286
  10.30940481 -2.54933499  7.20486286
  12.73510627  4.97503621  7.20486286
  12.73510615-10.30940493  7.20486286
  17.83377602 -4.97503645  7.20486286
  17.83377614 10.30940469  7.20486286
   7.35469637  1.87874868  7.47273512
  22.63913752  1.87874856  7.47273512
  23.21418591 -1.87874893  7.47273512
   7.92974477 -1.87874881  7.47273512
  13.40569246  7.35469625  7.47273512
  13.40569234 -7.92974489  7.47273512
  17.16318983 -7.35469650  7.47273512
  17.16318995  7.92974465  7.47273512
  19.07619005 -0.77861054  9.70171105
   3.79174891 -0.77861042  9.70171105
  11.49269224  0.77861029  9.70171105
  26.77713338  0.77861017  9.70171105
  16.06305144-11.49269236  9.70171105
  16.06305156  3.79174879  9.70171105
  14.50583085 11.49269211  9.70171105
  14.50583073 -3.79174903  9.70171105
   7.78079972  3.29114752  9.42119937
  23.06524086  3.29114740  9.42119937
  22.78808257 -3.29114777  9.42119937
   7.50364142 -3.29114764  9.42119937
  11.99329362  7.78079960  9.42119937
  11.99329350 -7.50364154  9.42119937
  18.57558867 -7.78079984  9.42119937
  18.57558879  7.50364130  9.42119937
   4.24392464  0.91465778  8.42279749
  19.52836578  0.91465766  8.42279749
  26.32495765 -0.91465803  8.42279749
  11.04051651 -0.91465790  8.42279749
  14.36978336  4.24392452  8.42279749
  14.36978324-11.04051663  8.42279749
  16.19909893 -4.24392476  8.42279749
  16.19909905 11.04051638  8.42279749
   5.23937988  1.68615930  7.81544935
  20.52382102  1.68615918  7.81544935
  25.32950241 -1.68615954  7.81544935
  10.04506126 -1.68615942  7.81544935
  13.59828185  5.23937976  7.81544935
  13.59828173-10.04506138  7.81544935
  16.97060044 -5.23938000  7.81544935
  16.97060056 10.04506114  7.81544935
   6.56839284  1.31826391  7.97905273
  21.85283398  1.31826379  7.97905273
  24.00048945 -1.31826415  7.97905273
   8.71604831 -1.31826403  7.97905273
  13.96617723  6.56839272  7.97905273
  13.96617711 -8.71604843  7.97905273
  16.60270506 -6.56839296  7.97905273
[...]
     13.91717      2.58465      7.99828         0.252553     -0.167246      0.316086
     13.91717    -12.69980      7.99828         0.281248     -0.184953      0.377472
     16.65171     -2.58465      7.99828        -0.252553      0.167246      0.316086
     16.65171     12.69980      7.99828        -0.281248      0.184953      0.377472
      9.03749      1.92507     10.45497         0.027591      0.041658     -0.002995
     24.32193      1.92507     10.45497         0.024865      0.041060     -0.003834
     21.53140     -1.92507     10.45497        -0.027591     -0.041658     -0.002995
      6.24695     -1.92507     10.45497        -0.024865     -0.041060     -0.003834
     13.35937      9.03749     10.45497        -0.041658      0.027591     -0.002995
     13.35937     -6.24695     10.45497        -0.041060      0.024865     -0.003834
     17.20951     -9.03749     10.45497         0.041658     -0.027591     -0.002995
     17.20951      6.24695     10.45497         0.041060     -0.024865     -0.003834
      1.73727      0.46229      9.00727         1.121423      0.263869     -0.056707
     17.02171      0.46229      9.00727         1.178911      0.553009      0.125217
     28.83161     -0.46229      9.00727        -1.121423     -0.263869     -0.056707
     13.54717     -0.46229      9.00727        -1.178911     -0.553009      0.125217
     14.82215      1.73727      9.00727        -0.263869      1.121423     -0.056707
     14.82215    -13.54717      9.00727        -0.553009      1.178911      0.125217
     15.74673     -1.73727      9.00727         0.263869     -1.121423     -0.056707
     15.74673     13.54717      9.00727         0.553009     -1.178911      0.125217
     17.66892    -12.53438      8.34656         0.045049      0.131210     -0.044494
     17.66893      2.75007      8.34656         0.048322      0.130871     -0.054044
     12.89996     12.53438      8.34656        -0.045049     -0.131210     -0.044494
     12.89996     -2.75007      8.34656        -0.048322     -0.130871     -0.054044
     12.53438      2.38448      8.34656        -0.131210      0.045049     -0.044494
     27.81882      2.38448      8.34656        -0.130871      0.048322     -0.054044
     18.03451     -2.38448      8.34656         0.131210     -0.045049     -0.044494
      2.75007     -2.38448      8.34656         0.130871     -0.048322     -0.054044
      2.30402      0.91545      6.66613        -0.029849     -0.006794     -0.214121
     17.58846      0.91545      6.66613        -0.041282     -0.018416     -0.222624
     28.26487     -0.91545      6.66613         0.029849      0.006794     -0.214121
     12.98042     -0.91545      6.66613         0.041282      0.018416     -0.222624
     14.36899      2.30402      6.66613         0.006794     -0.029849     -0.214121
     14.36899    -12.98042      6.66613         0.018416     -0.041282     -0.222624
     16.19989     -2.30402      6.66613        -0.006794      0.029849     -0.214121
     16.19989     12.98042      6.66613        -0.018416      0.041282     -0.222624
      7.80740      1.68420     11.15935         0.045922      0.034547      0.070649
     23.09184      1.68420     11.15935         0.046711      0.034905      0.070981
     22.76149     -1.68420     11.15935        -0.045922     -0.034547      0.070649
      7.47705     -1.68420     11.15935        -0.046711     -0.034905      0.070981
     13.60024      7.80740     11.15935        -0.034547      0.045922      0.070649
     13.60024     -7.47705     11.15935        -0.034905      0.046711      0.070981
     16.96864     -7.80740     11.15935         0.034547     -0.045922      0.070649
     16.96864      7.47705     11.15935         0.034905     -0.046711      0.070981
      8.74772      3.13062      9.39857         0.000838     -0.032440      0.041841
     24.03216      3.13062      9.39857         0.001426     -0.032533      0.042242
     21.82116     -3.13062      9.39857        -0.000838      0.032440      0.041841
      6.53672     -3.13062      9.39857        -0.001426      0.032533      0.042242
     12.15382      8.74772      9.39857         0.032440      0.000838      0.041841
     12.15382     -6.53672      9.39857         0.032533      0.001426      0.042242
     18.41506     -8.74772      9.39857        -0.032440     -0.000838      0.041841
     18.41506      6.53672      9.39857        -0.032533     -0.001426      0.042242
     10.26013      2.26920     11.11415        -0.047310     -0.014964      0.063079
     25.54457      2.26920     11.11415        -0.045919     -0.014790      0.063347
     20.30875     -2.26920     11.11415         0.047310      0.014964      0.063079
      5.02431     -2.26920     11.11415         0.045919      0.014790      0.063347
     13.01524     10.26013     11.11415         0.014964     -0.047310      0.063079
     13.01524     -5.02431     11.11415         0.014790     -0.045919      0.063347
     17.55364    -10.26013     11.11415        -0.014964      0.047310      0.063079
     17.55364      5.02431     11.11415        -0.014790      0.045919      0.063347
 -----------------------------------------------------------------------------------
    total drift:                                0.000000      0.000000     -0.083520


--------------------------------------------------------------------------------------------------------



  FREE ENERGIE OF THE ION-ELECTRON SYSTEM (eV)
  ---------------------------------------------------
  free  energy   TOTEN  =      -940.14980528 eV

  energy  without entropy=     -940.27881305  energy(sigma->0) =     -940.19280787
 


--------------------------------------------------------------------------------------------------------


    POTLOK:  cpu time      0.3370: real time      0.3376


--------------------------------------------------------------------------------------------------------


     LOOP+:  cpu time   5239.3602: real time   5241.9114
    4ORBIT:  cpu time      0.0000: real time      0.0000



 total charge

# of ion       s       p       d       tot
------------------------------------------
    1        0.359   6.423   4.048  10.829
    2        0.359   6.423   4.048  10.829
    3        0.639   0.047   0.000   0.686
    4        0.639   0.047   0.000   0.686
    5        0.639   0.047   0.000   0.686
    6        0.639   0.047   0.000   0.686
    7        0.639   0.047   0.000   0.686
    8        0.639   0.047   0.000   0.686
    9        0.639   0.047   0.000   0.686
   10        0.639   0.047   0.000   0.686
   11        0.642   0.047   0.000   0.688
   12        0.642   0.047   0.000   0.688
   13        0.642   0.047   0.000   0.688
   14        0.642   0.047   0.000   0.688
   15        0.642   0.047   0.000   0.688
   16        0.642   0.047   0.000   0.688
   17        0.642   0.047   0.000   0.688
   18        0.642   0.047   0.000   0.688
   19        0.632   0.051   0.000   0.682
   20        0.632   0.051   0.000   0.682
   21        0.632   0.051   0.000   0.682
   22        0.632   0.051   0.000   0.682
   23        0.632   0.051   0.000   0.682
   24        0.632   0.051   0.000   0.682
   25        0.632   0.051   0.000   0.682
   26        0.632   0.051   0.000   0.682
   27        0.601   0.117   0.000   0.718
   28        0.601   0.117   0.000   0.718
   29        0.601   0.117   0.000   0.718
   30        0.601   0.117   0.000   0.718
   31        0.601   0.117   0.000   0.718
   32        0.601   0.117   0.000   0.718
   33        0.601   0.117   0.000   0.718
   34        0.601   0.117   0.000   0.718
   35        0.867   1.754   0.000   2.621
   36        0.867   1.754   0.000   2.621
   37        0.867   1.754   0.000   2.621
   38        0.867   1.754   0.000   2.621
   39        0.867   1.754   0.000   2.621
   40        0.867   1.754   0.000   2.621
   41        0.867   1.754   0.000   2.621
   42        0.867   1.754   0.000   2.621
   43        0.872   1.771   0.000   2.643
   44        0.872   1.771   0.000   2.643
   45        0.872   1.771   0.000   2.643
   46        0.872   1.771   0.000   2.643
   47        0.872   1.771   0.000   2.643
   48        0.872   1.771   0.000   2.643
   49        0.872   1.771   0.000   2.643
   50        0.872   1.771   0.000   2.643
   51        0.871   1.775   0.000   2.646
   52        0.871   1.775   0.000   2.646
   53        0.871   1.775   0.000   2.646
   54        0.871   1.775   0.000   2.646
   55        0.871   1.775   0.000   2.646
   56        0.871   1.775   0.000   2.646
   57        0.871   1.775   0.000   2.646
   58        0.871   1.775   0.000   2.646
   59        0.863   1.757   0.000   2.620
   60        0.863   1.757   0.000   2.620
   61        0.863   1.757   0.000   2.620
   62        0.863   1.757   0.000   2.620
   63        0.863   1.757   0.000   2.620
   64        0.863   1.757   0.000   2.620
   65        0.863   1.757   0.000   2.620
   66        0.863   1.757   0.000   2.620
   67        0.864   1.739   0.000   2.603
   68        0.864   1.739   0.000   2.603
   69        0.864   1.739   0.000   2.603
   70        0.864   1.739   0.000   2.603
   71        0.864   1.739   0.000   2.603
   72        0.864   1.739   0.000   2.603
   73        0.864   1.739   0.000   2.603
   74        0.864   1.739   0.000   2.603
   75        0.875   1.767   0.000   2.641
   76        0.875   1.767   0.000   2.642
   77        0.875   1.767   0.000   2.641
   78        0.875   1.767   0.000   2.642
   79        0.875   1.767   0.000   2.641
   80        0.875   1.767   0.000   2.642
   81        0.875   1.767   0.000   2.641
   82        0.875   1.767   0.000   2.642
   83        1.252   2.286   0.000   3.537
   84        1.252   2.285   0.000   3.537
   85        1.252   2.286   0.000   3.537
   86        1.252   2.285   0.000   3.537
   87        1.252   2.286   0.000   3.537
   88        1.252   2.285   0.000   3.537
   89        1.252   2.286   0.000   3.537
   90        1.252   2.285   0.000   3.537
   91        1.251   2.282   0.000   3.533
   92        1.251   2.282   0.000   3.533
   93        1.251   2.282   0.000   3.533
   94        1.251   2.282   0.000   3.533
   95        1.251   2.282   0.000   3.533
   96        1.251   2.282   0.000   3.533
   97        1.251   2.282   0.000   3.533
   98        1.251   2.282   0.000   3.533
   99        1.580   3.526   0.000   5.106
  100        1.580   3.527   0.000   5.107
  101        1.580   3.526   0.000   5.106
  102        1.580   3.527   0.000   5.107
  103        1.580   3.526   0.000   5.106
  104        1.580   3.527   0.000   5.107
  105        1.580   3.526   0.000   5.106
  106        1.580   3.527   0.000   5.107
  107        1.605   3.521   0.000   5.126
  108        1.605   3.521   0.000   5.126
  109        1.605   3.521   0.000   5.126
  110        1.605   3.521   0.000   5.126
  111        1.605   3.521   0.000   5.126
  112        1.605   3.521   0.000   5.126
  113        1.605   3.521   0.000   5.126
  114        1.605   3.521   0.000   5.126
  115        1.608   3.511   0.000   5.120
  116        1.608   3.511   0.000   5.119
  117        1.608   3.511   0.000   5.120
  118        1.608   3.511   0.000   5.119
  119        1.608   3.511   0.000   5.120
  120        1.608   3.511   0.000   5.119
  121        1.608   3.511   0.000   5.120
  122        1.608   3.511   0.000   5.119
  123        1.605   3.524   0.000   5.129
  124        1.605   3.524   0.000   5.129
  125        1.605   3.524   0.000   5.129
  126        1.605   3.524   0.000   5.129
  127        1.605   3.524   0.000   5.129
  128        1.605   3.524   0.000   5.129
  129        1.605   3.524   0.000   5.129
  130        1.605   3.524   0.000   5.129
  131        1.582   3.563   0.000   5.145
  132        1.582   3.563   0.000   5.145
  133        1.582   3.563   0.000   5.145
  134        1.582   3.563   0.000   5.145
  135        1.582   3.563   0.000   5.145
  136        1.582   3.563   0.000   5.145
  137        1.582   3.563   0.000   5.145
  138        1.582   3.563   0.000   5.145
  139        1.605   3.529   0.000   5.134
  140        1.605   3.529   0.000   5.134
  141        1.605   3.529   0.000   5.134
  142        1.605   3.529   0.000   5.134
  143        1.605   3.529   0.000   5.134
  144        1.605   3.529   0.000   5.134
  145        1.605   3.529   0.000   5.134
  146        1.605   3.529   0.000   5.134
--------------------------------------------------
tot        159.226 305.357   8.095 472.678



 magnetization (x)

# of ion       s       p       d       tot
------------------------------------------
    1        0.082   0.025   2.278   2.384
    2       -0.082  -0.025  -2.278  -2.384
    3        0.000  -0.000   0.000   0.000
    4       -0.000  -0.000   0.000  -0.000
    5        0.000  -0.000   0.000   0.000
    6       -0.000  -0.000   0.000  -0.000
    7       -0.000   0.000   0.000  -0.000
    8        0.000   0.000   0.000   0.000
    9       -0.000   0.000   0.000  -0.000
   10        0.000   0.000   0.000   0.000
   11       -0.000  -0.000   0.000  -0.000
   12        0.000   0.000   0.000   0.000
   13       -0.000  -0.000   0.000  -0.000
   14        0.000   0.000   0.000   0.000
   15        0.000   0.000   0.000   0.000
   16       -0.000  -0.000   0.000  -0.000
   17        0.000   0.000   0.000   0.000
   18       -0.000  -0.000   0.000  -0.000
   19        0.000  -0.000   0.000   0.000
   20        0.000   0.000   0.000   0.000
   21        0.000  -0.000   0.000   0.000
   22        0.000   0.000   0.000   0.000
   23       -0.000   0.000   0.000  -0.000
   24       -0.000  -0.000   0.000  -0.000
   25       -0.000   0.000   0.000  -0.000
   26       -0.000  -0.000   0.000  -0.000
   27       -0.000   0.000   0.000  -0.000
   28        0.000  -0.000   0.000   0.000
   29       -0.000   0.000   0.000  -0.000
   30        0.000  -0.000   0.000   0.000
   31        0.000  -0.000   0.000   0.000
   32       -0.000   0.000   0.000  -0.000
   33        0.000  -0.000   0.000   0.000
   34       -0.000   0.000   0.000  -0.000
   35       -0.000  -0.003   0.000  -0.003
   36        0.000   0.003   0.000   0.003
   37       -0.000  -0.003   0.000  -0.003
   38        0.000   0.003   0.000   0.003
   39        0.000   0.003   0.000   0.003
   40       -0.000  -0.003   0.000  -0.003
   41        0.000   0.003   0.000   0.003
   42       -0.000  -0.003   0.000  -0.003
   43       -0.000  -0.000   0.000  -0.000
   44       -0.000   0.000   0.000   0.000
   45       -0.000  -0.000   0.000  -0.000
   46       -0.000   0.000   0.000   0.000
   47        0.000   0.000   0.000   0.000
   48        0.000  -0.000   0.000  -0.000
   49        0.000   0.000   0.000   0.000
   50        0.000  -0.000   0.000  -0.000
   51        0.000  -0.000   0.000  -0.000
   52        0.000   0.000   0.000   0.000
   53        0.000  -0.000   0.000  -0.000
   54        0.000   0.000   0.000   0.000
   55       -0.000   0.000   0.000   0.000
   56       -0.000  -0.000   0.000  -0.000
   57       -0.000   0.000   0.000   0.000
   58       -0.000  -0.000   0.000  -0.000
   59       -0.000  -0.001   0.000  -0.001
   60        0.000   0.001   0.000   0.001
   61       -0.000  -0.001   0.000  -0.001
   62        0.000   0.001   0.000   0.001
   63        0.000   0.001   0.000   0.001
   64       -0.000  -0.001   0.000  -0.001
   65        0.000   0.001   0.000   0.001
   66       -0.000  -0.001   0.000  -0.001
   67       -0.000   0.000   0.000   0.000
   68        0.000   0.000   0.000   0.000
   69       -0.000   0.000   0.000   0.000
   70        0.000   0.000   0.000   0.000
   71        0.000  -0.000   0.000  -0.000
   72       -0.000  -0.000   0.000  -0.000
   73        0.000  -0.000   0.000  -0.000
   74       -0.000  -0.000   0.000  -0.000
   75       -0.000   0.000   0.000   0.000
   76        0.000  -0.000   0.000  -0.000
   77       -0.000   0.000   0.000   0.000
   78        0.000  -0.000   0.000  -0.000
   79        0.000  -0.000   0.000  -0.000
   80       -0.000   0.000   0.000   0.000
   81        0.000  -0.000   0.000  -0.000
   82       -0.000   0.000   0.000   0.000
   83        0.001   0.005   0.000   0.006
   84       -0.001  -0.005   0.000  -0.006
   85        0.001   0.005   0.000   0.006
   86       -0.001  -0.005   0.000  -0.006
   87       -0.001  -0.005   0.000  -0.006
   88        0.001   0.005   0.000   0.006
   89       -0.001  -0.005   0.000  -0.006
   90        0.001   0.005   0.000   0.006
   91       -0.000  -0.000   0.000  -0.000
   92       -0.000  -0.000   0.000  -0.000
   93       -0.000  -0.000   0.000  -0.000
   94       -0.000  -0.000   0.000  -0.000
   95        0.000   0.000   0.000   0.000
   96        0.000   0.000   0.000   0.000
   97        0.000   0.000   0.000   0.000
   98        0.000   0.000   0.000   0.000
   99       -0.002  -0.070   0.000  -0.072
  100        0.002   0.065   0.000   0.067
  101       -0.002  -0.070   0.000  -0.072
  102        0.002   0.065   0.000   0.067
  103        0.002   0.070   0.000   0.072
  104       -0.002  -0.065   0.000  -0.067
  105        0.002   0.070   0.000   0.072
  106       -0.002  -0.065   0.000  -0.067
  107       -0.000  -0.026   0.000  -0.026
  108        0.000   0.029   0.000   0.029
  109       -0.000  -0.026   0.000  -0.026
  110        0.000   0.029   0.000   0.029
  111        0.000   0.026   0.000   0.026
  112       -0.000  -0.029   0.000  -0.029
  113        0.000   0.026   0.000   0.026
  114       -0.000  -0.029   0.000  -0.029
  115       -0.000  -0.020   0.000  -0.021
  116        0.000   0.024   0.000   0.024
  117       -0.000  -0.020   0.000  -0.021
  118        0.000   0.024   0.000   0.024
  119        0.000   0.020   0.000   0.021
  120       -0.000  -0.024   0.000  -0.024
  121        0.000   0.020   0.000   0.021
  122       -0.000  -0.024   0.000  -0.024
  123       -0.000  -0.000   0.000  -0.000
  124        0.000   0.000   0.000   0.000
  125       -0.000  -0.000   0.000  -0.000
  126        0.000   0.000   0.000   0.000
  127        0.000   0.000   0.000   0.000
  128       -0.000  -0.000   0.000  -0.000
  129        0.000   0.000   0.000   0.000
  130       -0.000  -0.000   0.000  -0.000
  131        0.000   0.000   0.000   0.000
  132        0.000   0.000   0.000   0.000
  133        0.000   0.000   0.000   0.000
  134        0.000   0.000   0.000   0.000
  135       -0.000  -0.000   0.000  -0.000
  136       -0.000  -0.000   0.000  -0.000
  137       -0.000  -0.000   0.000  -0.000
  138       -0.000  -0.000   0.000  -0.000
  139       -0.000  -0.000   0.000  -0.000
  140       -0.000   0.000   0.000   0.000
  141       -0.000  -0.000   0.000  -0.000
  142       -0.000   0.000   0.000   0.000
  143        0.000   0.000   0.000   0.000
  144        0.000  -0.000   0.000  -0.000
  145        0.000   0.000   0.000   0.000
  146        0.000  -0.000   0.000  -0.000
--------------------------------------------------
tot          0.000   0.000   0.000   0.000
 

 total amount of memory used by VASP MPI-rank0  3424657. kBytes
=======================================================================

   base      :      30000. kBytes
   nonlr-proj:       4692. kBytes
   fftplans  :      19993. kBytes
   grid      :      52684. kBytes
   one-center:        404. kBytes
   wavefun   :    3316884. kBytes
 
  
  
 General timing and accounting informations for this job:
 ========================================================
  
                  Total CPU time used (sec):     5740.334
                            User time (sec):     5618.043
                          System time (sec):      122.291
                         Elapsed time (sec):     5782.465
  
                   Maximum memory used (kb):     4109444.
                   Average memory used (kb):          N/A
  
                          Minor page faults:      1199700
                          Major page faults:            0
                 Voluntary context switches:       180119
