 vasp.6.3.2 27Jun22 (build Aug 02 2025 14:55:03) complex                        
  
 executed on             LinuxIFC date 2025.11.27  20:09:50
 running on   48 total cores
 distrk:  each k-point on   48 cores,    1 groups
 distr:  one band on NCORE=  12 cores,    4 groups


--------------------------------------------------------------------------------------------------------


 INCAR:
   PREC = Normal
   ENCUT = 500
   IBRION = -1
   ISPIN = 2
   MAGMOM = 5 -5 4*1 4*-1 4*1 4*-1 4*1 4*-1 4*1 4*-1 4*1 4*-1 4*1 4*-1 4*1 4*-1 4*1 4*-1 4*1 4*-1 4*1 4*-1 4*1 4*-1 4*1 4*-1 4*1 4*-1 4*1 4*-1 4*1 4*-1 4*1 4*-1 4*1 4*-1 4*1 4*-1 4*1 4*-1 4*1 4*-1 4*1 4*-1 4*1 4*-1 4*1 4*-1 4*1 4*-1 4*1 4*-1 4*1 4*-1 4*1 4*-1 4*1 4*-1 4*1 4*-1 4*1 4*-1 4*1 4*-1 4*1 4*-1 4*1 4*-1 4*1 4*-1 4*1 4*-1 4*1 4*-1 4*1 4*-1 4*1 4*-1 4*1 4*-1
   NSW = 0
   NELM = 200
   ISIF = 2
   EDIFF = 1E-5
   EDIFFG = -0.01
   ALGO = Fast
   ISTART = 1
   ICHARG = 11
   LREAL = Auto
   LWAVE = .F.
   LCHARG = .F.
   LVTOT = .T.
   NPAR = 4
   AMIX = 0.2
   BMIX = 0.0001
   AMIX_MAG = 0.8
   BMIX_MAG = 0.0001
   LDAU = .TRUE.
   LDAUTYPE = 2
   LDAUL = 2 -1 -1 -1 -1 -1
   LDAUU = 3.0 0 0 0 0 0
   LDAUJ = 1.0 0 0 0 0 0
   LMAXMIX = 4
   LORBIT = 11

 POTCAR:    PAW_PBE Cr_pv 02Aug2007               
 POTCAR:    PAW_PBE H 15Jun2001                   
 POTCAR:    PAW_PBE C 08Apr2002                   
 POTCAR:    PAW_PBE O 08Apr2002                   
 WARNING: For LVTOT=.TRUE., VASP.5.x writes the TOTAL local potential to the
     file LOCPOT. If you want only the Hartree contributions, use LVHAR=.TRUE.
     instead. 

 POTCAR:    PAW_PBE Cr_pv 02Aug2007               
   SHA256 =  c9a7df34d3cdbacf1090e328ef39c0b420964e11c23f63548d1ac9dd218cdba0 Cr_pv/POTCAR          
   COPYR  = (c) Copyright 02Aug2007 Georg Kresse                                                    
   COPYR  = This file is part of the software VASP. Any use, copying, and all other rights are regul
   COPYR  = If you do not have a valid VASP license, you may not use, copy or distribute this file. 
   VRHFIN =Cr : p6d5s1                                                                              
   LEXCH  = PE                                                                                      
   EATOM  =  1647.9177 eV,  121.1185 Ry                                                             
                                                                                                    
   TITEL  = PAW_PBE Cr_pv 02Aug2007                                                                 
   LULTRA =        F    use ultrasoft PP ?                                                          
   IUNSCR =        1    unscreen: 0-lin 1-nonlin 2-no                                               
   RPACOR =    2.080    partial core radius                                                         
   POMASS =   51.996; ZVAL   =   12.000    mass and valenz                                          
   RCORE  =    2.300    outmost cutoff radius                                                       
   RWIGS  =    2.500; RWIGS  =    1.323    wigner-seitz radius (au A)                               
   ENMAX  =  265.681; ENMIN  =  199.261 eV                                                          
   ICORE  =        3    local potential                                                             
   LCOR   =        T    correct aug charges                                                         
   LPAW   =        T    paw PP                                                                      
   EAUG   =  519.424                                                                                
   DEXC   =    0.000                                                                                
   RMAX   =    2.356    core radius for proj-oper                                                   
   RAUG   =    1.300    factor for augmentation sphere                                              
   RDEP   =    2.447    radius for radial grids                                                     
   RDEPT  =    1.882    core radius for aug-charge                                                  
                                                                                                    
   Atomic configuration                                                                             
    8 entries                                                                                       
     n  l   j            E        occ.                                                              
     1  0  0.50     -5880.4963   2.0000                                                             
     2  0  0.50      -667.0865   2.0000                                                             
     2  1  1.50      -560.6250   6.0000                                                             
     3  0  0.50       -73.9860   2.0000                                                             
     3  1  1.50       -45.4378   6.0000                                                             
     3  2  2.50        -2.9137   5.0000                                                             
     4  0  0.50        -4.0071   1.0000                                                             
     4  3  2.50        -1.3606   0.0000                                                             
   Description                                                                                      
     l       E           TYP  RCUT    TYP  RCUT                                                     
     1    -45.4377911     23  2.000                                                                 
     1      1.3605826     23  2.000                                                                 
     2     -2.9136672     23  2.300                                                                 
     2     -4.2742498     23  2.300                                                                 
     0     -4.0071320     23  2.300                                                                 
     0      9.4498803     23  2.300                                                                 
     3      2.7211652     23  2.300                                                                 
  local pseudopotential read in
  partial core-charges read in
  partial kinetic energy density read in
  atomic valenz-charges read in
  non local Contribution for L=           1  read in
    real space projection operators read in
  non local Contribution for L=           1  read in
    real space projection operators read in
  non local Contribution for L=           2  read in
    real space projection operators read in
  non local Contribution for L=           2  read in
    real space projection operators read in
  non local Contribution for L=           0  read in
    real space projection operators read in
  non local Contribution for L=           0  read in
    real space projection operators read in
    PAW grid and wavefunctions read in
 
   number of l-projection  operators is LMAX  =           6
   number of lm-projection operators is LMMAX =          18
 
 POTCAR:    PAW_PBE H 15Jun2001                   
   SHA256 =  030f79b5d3ab3cf0e668861823c8fb652ff669f3e15e46930bd03bfd63a607b6 H/POTCAR              
   COPYR  = (c) Copyright 15Jun2001 Georg Kresse                                                    
   COPYR  = This file is part of the software VASP. Any use, copying, and all other rights are regul
   COPYR  = If you do not have a valid VASP license, you may not use, copy or distribute this file. 
   VRHFIN =H: ultrasoft test                                                                        
   LEXCH  = PE                                                                                      
   EATOM  =    12.4884 eV,    0.9179 Ry                                                             
                                                                                                    
   TITEL  = PAW_PBE H 15Jun2001                                                                     
   LULTRA =        F    use ultrasoft PP ?                                                          
   IUNSCR =        0    unscreen: 0-lin 1-nonlin 2-no                                               
   RPACOR =    0.000    partial core radius                                                         
   POMASS =    1.000; ZVAL   =    1.000    mass and valenz                                          
   RCORE  =    1.100    outmost cutoff radius                                                       
   RWIGS  =    0.700; RWIGS  =    0.370    wigner-seitz radius (au A)                               
   ENMAX  =  250.000; ENMIN  =  200.000 eV                                                          
   RCLOC  =    0.701    cutoff for local pot                                                        
   LCOR   =        T    correct aug charges                                                         
   LPAW   =        T    paw PP                                                                      
   EAUG   =  400.000                                                                                
   RMAX   =    1.123    core radius for proj-oper                                                   
   RAUG   =    1.200    factor for augmentation sphere                                              
   RDEP   =    1.112    radius for radial grids                                                     
   RDEPT  =    0.926    core radius for aug-charge                                                  
                                                                                                    
   Atomic configuration                                                                             
    2 entries                                                                                       
     n  l   j            E        occ.                                                              
     1  0  0.50        -6.4927   1.0000                                                             
     2  1  0.50        -3.4015   0.0000                                                             
   Description                                                                                      
     l       E           TYP  RCUT    TYP  RCUT                                                     
     0     -6.4927494     23  1.100                                                                 
     0      6.8029130     23  1.100                                                                 
     1     -4.0817478     23  1.100                                                                 
  local pseudopotential read in
  atomic valenz-charges read in
  non local Contribution for L=           0  read in
    real space projection operators read in
  non local Contribution for L=           0  read in
    real space projection operators read in
  non local Contribution for L=           1  read in
    real space projection operators read in
    PAW grid and wavefunctions read in
 
   number of l-projection  operators is LMAX  =           3
   number of lm-projection operators is LMMAX =           5
 
 POTCAR:    PAW_PBE C 08Apr2002                   
   SHA256 =  253f7b50bb8d59471dbedb8285d89021f4a42ed1a2c5d38a03a736e69125dd95 C/POTCAR              
   COPYR  = (c) Copyright 08Apr2002 Georg Kresse                                                    
   COPYR  = This file is part of the software VASP. Any use, copying, and all other rights are regul
   COPYR  = If you do not have a valid VASP license, you may not use, copy or distribute this file. 
   VRHFIN =C: s2p2                                                                                  
   LEXCH  = PE                                                                                      
   EATOM  =   147.1560 eV,   10.8157 Ry                                                             
                                                                                                    
   TITEL  = PAW_PBE C 08Apr2002                                                                     
   LULTRA =        F    use ultrasoft PP ?                                                          
   IUNSCR =        1    unscreen: 0-lin 1-nonlin 2-no                                               
   RPACOR =    1.200    partial core radius                                                         
   POMASS =   12.011; ZVAL   =    4.000    mass and valenz                                          
   RCORE  =    1.500    outmost cutoff radius                                                       
   RWIGS  =    1.630; RWIGS  =    0.863    wigner-seitz radius (au A)                               
   ENMAX  =  400.000; ENMIN  =  300.000 eV                                                          
   ICORE  =        2    local potential                                                             
   LCOR   =        T    correct aug charges                                                         
   LPAW   =        T    paw PP                                                                      
   EAUG   =  644.873                                                                                
   DEXC   =    0.000                                                                                
   RMAX   =    1.529    core radius for proj-oper                                                   
   RAUG   =    1.300    factor for augmentation sphere                                              
   RDEP   =    1.501    radius for radial grids                                                     
   RDEPT  =    1.300    core radius for aug-charge                                                  
                                                                                                    
   Atomic configuration                                                                             
    4 entries                                                                                       
     n  l   j            E        occ.                                                              
     1  0  0.50      -273.3789   2.0000                                                             
     2  0  0.50       -13.7508   2.0000                                                             
     2  1  0.50        -5.2854   2.0000                                                             
     3  2  1.50        -5.4423   0.0000                                                             
   Description                                                                                      
     l       E           TYP  RCUT    TYP  RCUT                                                     
     0    -13.7508458     23  1.200                                                                 
     0     -8.2022199     23  1.200                                                                 
     1     -5.2854383     23  1.500                                                                 
     1     34.0145650     23  1.500                                                                 
     2     -5.4423304      7  1.500                                                                 
  local pseudopotential read in
  partial core-charges read in
  partial kinetic energy density read in
  atomic valenz-charges read in
  non local Contribution for L=           0  read in
    real space projection operators read in
  non local Contribution for L=           0  read in
    real space projection operators read in
  non local Contribution for L=           1  read in
    real space projection operators read in
  non local Contribution for L=           1  read in
    real space projection operators read in
    PAW grid and wavefunctions read in
 
   number of l-projection  operators is LMAX  =           4
   number of lm-projection operators is LMMAX =           8
 
 POTCAR:    PAW_PBE O 08Apr2002                   
   SHA256 =  818f92134a0a090dccd8ba1447fa70422a3b330e708bb4f08108d8ae51209ddf O/POTCAR              
   COPYR  = (c) Copyright 08Apr2002 Georg Kresse                                                    
   COPYR  = This file is part of the software VASP. Any use, copying, and all other rights are regul
   COPYR  = If you do not have a valid VASP license, you may not use, copy or distribute this file. 
   VRHFIN =O: s2p4                                                                                  
   LEXCH  = PE                                                                                      
   EATOM  =   432.3788 eV,   31.7789 Ry                                                             
                                                                                                    
   TITEL  = PAW_PBE O 08Apr2002                                                                     
   LULTRA =        F    use ultrasoft PP ?                                                          
   IUNSCR =        1    unscreen: 0-lin 1-nonlin 2-no                                               
   RPACOR =    1.200    partial core radius                                                         
   POMASS =   16.000; ZVAL   =    6.000    mass and valenz                                          
   RCORE  =    1.520    outmost cutoff radius                                                       
   RWIGS  =    1.550; RWIGS  =    0.820    wigner-seitz radius (au A)                               
   ENMAX  =  400.000; ENMIN  =  300.000 eV                                                          
   ICORE  =        2    local potential                                                             
   LCOR   =        T    correct aug charges                                                         
   LPAW   =        T    paw PP                                                                      
   EAUG   =  605.392                                                                                
   DEXC   =    0.000                                                                                
   RMAX   =    1.553    core radius for proj-oper                                                   
   RAUG   =    1.300    factor for augmentation sphere                                              
   RDEP   =    1.550    radius for radial grids                                                     
   RDEPT  =    1.329    core radius for aug-charge                                                  
                                                                                                    
   Atomic configuration                                                                             
    4 entries                                                                                       
     n  l   j            E        occ.                                                              
     1  0  0.50      -514.6923   2.0000                                                             
     2  0  0.50       -23.9615   2.0000                                                             
     2  1  0.50        -9.0305   4.0000                                                             
     3  2  1.50        -9.5241   0.0000                                                             
   Description                                                                                      
     l       E           TYP  RCUT    TYP  RCUT                                                     
     0    -23.9615318     23  1.200                                                                 
     0     -9.5240782     23  1.200                                                                 
     1     -9.0304911     23  1.520                                                                 
     1      8.1634956     23  1.520                                                                 
     2     -9.5240782      7  1.500                                                                 
  local pseudopotential read in
  partial core-charges read in
  partial kinetic energy density read in
  kinetic energy density of atom read in
  atomic valenz-charges read in
  non local Contribution for L=           0  read in
    real space projection operators read in
  non local Contribution for L=           0  read in
    real space projection operators read in
  non local Contribution for L=           1  read in
    real space projection operators read in
  non local Contribution for L=           1  read in
    real space projection operators read in
    PAW grid and wavefunctions read in
 
   number of l-projection  operators is LMAX  =           4
   number of lm-projection operators is LMMAX =           8
 
 Optimization of the real space projectors (new method)

 maximal supplied QI-value         = 16.25
 optimisation between [QCUT,QGAM] = [ 11.38, 22.75] = [ 36.24,144.96] Ry 
 Optimized for a Real-space Cutoff    1.31 Angstroem

   l    n(q)    QCUT    max X(q) W(low)/X(q) W(high)/X(q)  e(spline) 
   1      8    11.376     3.262    0.15E-03    0.36E-03    0.86E-07
   1      8    11.376     5.741    0.39E-03    0.84E-03    0.21E-06
   2      8    11.376    60.438    0.39E-03    0.55E-03    0.20E-06
   2      8    11.376    55.380    0.40E-03    0.57E-03    0.20E-06
   0      9    11.376    80.273    0.17E-03    0.16E-03    0.48E-07
   0      9    11.376    36.654    0.15E-03    0.14E-03    0.43E-07
 Optimization of the real space projectors (new method)

 maximal supplied QI-value         = 34.20
 optimisation between [QCUT,QGAM] = [ 11.29, 22.57] = [ 35.68,142.71] Ry 
 Optimized for a Real-space Cutoff    1.16 Angstroem

   l    n(q)    QCUT    max X(q) W(low)/X(q) W(high)/X(q)  e(spline) 
   0      8    11.287    19.460    0.40E-03    0.73E-03    0.16E-06
   0      8    11.287    12.209    0.38E-03    0.70E-03    0.15E-06
   1      7    11.287     4.655    0.22E-03    0.25E-04    0.22E-06
 Optimization of the real space projectors (new method)

 maximal supplied QI-value         = 25.13
 optimisation between [QCUT,QGAM] = [ 11.31, 22.87] = [ 35.82,146.48] Ry 
 Optimized for a Real-space Cutoff    1.00 Angstroem

   l    n(q)    QCUT    max X(q) W(low)/X(q) W(high)/X(q)  e(spline) 
   0      7    11.310   115.676    0.43E-03    0.13E-02    0.19E-06
   0      7    11.310    87.132    0.43E-03    0.13E-02    0.18E-06
   1      6    11.310     4.429    0.42E-03    0.74E-03    0.11E-06
   1      6    11.310     2.733    0.34E-03    0.55E-03    0.92E-07
 Optimization of the real space projectors (new method)

 maximal supplied QI-value         = 24.76
 optimisation between [QCUT,QGAM] = [ 11.39, 22.77] = [ 36.31,145.25] Ry 
 Optimized for a Real-space Cutoff    1.00 Angstroem

   l    n(q)    QCUT    max X(q) W(low)/X(q) W(high)/X(q)  e(spline) 
   0      7    11.387    20.381    0.39E-03    0.13E-02    0.15E-06
   0      7    11.387    15.268    0.42E-03    0.14E-02    0.17E-06
   1      6    11.387     5.964    0.41E-03    0.11E-02    0.17E-06
   1      6    11.387     5.382    0.39E-03    0.87E-03    0.15E-06
  PAW_PBE Cr_pv 02Aug2007               :
 energy of atom  1       EATOM=-1647.9177
 kinetic energy error for atom=    0.0061 (will be added to EATOM!!)
  PAW_PBE H 15Jun2001                   :
 energy of atom  2       EATOM=  -12.4884
 kinetic energy error for atom=    0.0020 (will be added to EATOM!!)
  PAW_PBE C 08Apr2002                   :
 energy of atom  3       EATOM= -147.1560
 kinetic energy error for atom=    0.0076 (will be added to EATOM!!)
  PAW_PBE O 08Apr2002                   :
 energy of atom  4       EATOM= -432.3788
 kinetic energy error for atom=    0.0224 (will be added to EATOM!!)
 
 
 POSCAR: Generated by VASPKIT code
  positions in cartesian coordinates
  No initial velocities read in
 exchange correlation table for  LEXCH =        8
   RHO(1)=    0.500       N(1)  =     2000
   RHO(2)=  100.500       N(2)  =     4000
 


--------------------------------------------------------------------------------------------------------


 ion  position               nearest neighbor table
   1  0.000  0.000  0.500-  54 1.83  57 1.83  55 1.83  52 1.83
   2  0.500  0.500  0.500-  53 1.83  56 1.83  58 1.83  51 1.83
   3  0.242  0.942  0.500-  27 1.08
   4  0.742  0.442  0.500-  28 1.08
   5  0.758  0.058  0.500-  29 1.08
   6  0.258  0.558  0.500-  30 1.08
   7  0.558  0.742  0.500-  31 1.08
   8  0.058  0.242  0.500-  32 1.08
   9  0.442  0.258  0.500-  33 1.08
  10  0.942  0.758  0.500-  34 1.08
  11  0.569  0.195  0.500-  43 1.09
  12  0.069  0.695  0.500-  44 1.09
  13  0.431  0.805  0.500-  45 1.09
  14  0.931  0.305  0.500-  46 1.09
  15  0.305  0.069  0.500-  47 1.09
  16  0.805  0.569  0.500-  48 1.09
  17  0.695  0.931  0.500-  49 1.09
  18  0.195  0.431  0.500-  50 1.09
  19  0.631  0.339  0.500-  51 1.30  28 1.40  43 1.49
  20  0.131  0.839  0.500-  52 1.30  27 1.40  44 1.49
  21  0.369  0.661  0.500-  53 1.30  30 1.40  45 1.49
  22  0.869  0.161  0.500-  54 1.30  29 1.40  46 1.49
  23  0.161  0.131  0.500-  55 1.30  32 1.40  47 1.49
  24  0.661  0.631  0.500-  56 1.30  31 1.40  48 1.49
  25  0.839  0.869  0.500-  57 1.30  34 1.40  49 1.49
  26  0.339  0.369  0.500-  58 1.30  33 1.40  50 1.49
  27  0.222  0.871  0.500-   3 1.08  20 1.40  37 1.43
  28  0.722  0.371  0.500-   4 1.08  19 1.40  38 1.43
  29  0.778  0.129  0.500-   5 1.08  22 1.40  35 1.43
  30  0.278  0.629  0.500-   6 1.08  21 1.40  36 1.43
  31  0.629  0.722  0.500-   7 1.08  24 1.40  41 1.43
  32  0.129  0.222  0.500-   8 1.08  23 1.40  42 1.43
  33  0.371  0.278  0.500-   9 1.08  26 1.40  39 1.43
  34  0.871  0.778  0.500-  10 1.08  25 1.40  40 1.43
  35  0.720  0.208  0.500-  43 1.37  29 1.43  38 1.49
  36  0.220  0.708  0.500-  44 1.37  30 1.43  37 1.49
  37  0.280  0.792  0.500-  45 1.37  27 1.43  36 1.49
  38  0.780  0.292  0.500-  46 1.37  28 1.43  35 1.49
  39  0.292  0.220  0.500-  47 1.37  33 1.43  42 1.49
  40  0.792  0.720  0.500-  48 1.37  34 1.43  41 1.49
  41  0.708  0.780  0.500-  49 1.37  31 1.43  40 1.49
  42  0.208  0.280  0.500-  50 1.37  32 1.43  39 1.49
  43  0.631  0.237  0.500-  11 1.09  35 1.37  19 1.49
  44  0.131  0.737  0.500-  12 1.09  36 1.37  20 1.49
  45  0.369  0.763  0.500-  13 1.09  37 1.37  21 1.49
  46  0.869  0.263  0.500-  14 1.09  38 1.37  22 1.49
  47  0.263  0.131  0.500-  15 1.09  39 1.37  23 1.49
  48  0.763  0.631  0.500-  16 1.09  40 1.37  24 1.49
  49  0.737  0.869  0.500-  17 1.09  41 1.37  25 1.49
  50  0.237  0.369  0.500-  18 1.09  42 1.37  26 1.49
  51  0.556  0.387  0.500-  19 1.30   2 1.83
  52  0.056  0.887  0.500-  20 1.30   1 1.83
  53  0.444  0.613  0.500-  21 1.30   2 1.83
  54  0.944  0.113  0.500-  22 1.30   1 1.83
  55  0.113  0.056  0.500-  23 1.30   1 1.83
  56  0.613  0.556  0.500-  24 1.30   2 1.83
  57  0.887  0.944  0.500-  25 1.30   1 1.83
  58  0.387  0.444  0.500-  26 1.30   2 1.83
 
  LATTYP: Found a simple tetragonal cell.
 ALAT       =    14.5715923309
 C/A-ratio  =     1.0294001959
  
  Lattice vectors:
  
 A1 = (  14.5715923309,   0.0000000000,   0.0000000000)
 A2 = (   0.0000000000,  14.5715923309,   0.0000000000)
 A3 = (   0.0000000000,   0.0000000000,  15.0000000000)


Analysis of symmetry for initial positions (statically):
=====================================================================
 Subroutine PRICEL returns following result:
 
  LATTYP: Found a simple tetragonal cell.
 ALAT       =    10.3036717838
 C/A-ratio  =     1.4557917134
  
  Lattice vectors:
  
 A1 = (   7.2857961895,  -7.2857961894,   0.0000000000)
 A2 = (   7.2857961895,   7.2857961415,   0.0000000000)
 A3 = (   0.0000000000,   0.0000000000,  15.0000000000)
 
   2 primitive cells build up your supercell.
 

 Routine SETGRP: Setting up the symmetry group for a 
 simple tetragonal supercell.


 Subroutine GETGRP returns: Found  4 space group operations
 (whereof  4 operations were pure point group operations)
 out of a pool of 16 trial point group operations.


The static configuration has the point symmetry     .


Analysis of symmetry for dynamics (positions and initial velocities):
=====================================================================
 Subroutine PRICEL returns following result:
 
  LATTYP: Found a simple tetragonal cell.
 ALAT       =    10.3036717838
 C/A-ratio  =     1.4557917134
  
  Lattice vectors:
  
 A1 = (   7.2857961895,  -7.2857961894,   0.0000000000)
 A2 = (   7.2857961895,   7.2857961415,   0.0000000000)
 A3 = (   0.0000000000,   0.0000000000,  15.0000000000)
 
   2 primitive cells build up your supercell.
 

 Routine SETGRP: Setting up the symmetry group for a 
 simple tetragonal supercell.


 Subroutine GETGRP returns: Found  4 space group operations
 (whereof  4 operations were pure point group operations)
 out of a pool of 16 trial point group operations.


The dynamic configuration has the point symmetry     .


Analysis of structural, dynamic, and magnetic symmetry:
=====================================================================
 Subroutine PRICEL returns:
 Original cell was already a primitive cell.
 

 Routine SETGRP: Setting up the symmetry group for a 
 simple tetragonal supercell.


 Subroutine GETGRP returns: Found  4 space group operations
 (whereof  2 operations were pure point group operations)
 out of a pool of 16 trial point group operations.


The overall configuration has the point symmetry C_2 .
 The point group associated with its full space group is C_2 .


 Subroutine INISYM returns: Found  4 space group operations
 (whereof  2 operations are pure point group operations),
 and found     1 'primitive' translations


----------------------------------------------------------------------------------------

                                     Primitive cell                                     

  volume of cell :    3184.9695

  direct lattice vectors                    reciprocal lattice vectors
    14.571592331  0.000000000  0.000000000     0.068626680 -0.000000000 -0.000000000
     0.000000000 14.571592331  0.000000000     0.000000000  0.068626680 -0.000000000
     0.000000000  0.000000000 15.000000000     0.000000000  0.000000000  0.066666667

  length of vectors
    14.571592331 14.571592331 15.000000000     0.068626680  0.068626680  0.066666667

  position of ions in fractional coordinates (direct lattice)
     0.000000000  0.000000000  0.499971711
     0.500000002  0.499999998  0.499971711
     0.242414034  0.942435218  0.500006072
     0.742414032  0.442435216  0.500006072
     0.757585969  0.057564779  0.500006072
     0.257585971  0.557564781  0.500006072
     0.557564784  0.742414029  0.500006072
     0.057564782  0.242414031  0.500006072
     0.442435219  0.257585968  0.500006072
     0.942435221  0.757585966  0.500006072
     0.569225201  0.194898236  0.499922376
     0.069225202  0.694898238  0.499922376
     0.430774803  0.805101760  0.499922376
     0.930774801  0.305101759  0.499922376
     0.305101762  0.069225199  0.499922376
     0.805101764  0.569225197  0.499922376
     0.694898241  0.930774798  0.499922376
     0.194898240  0.430774799  0.499922376
     0.631417945  0.339284086  0.500042331
     0.131417947  0.839284088  0.500042331
     0.368582058  0.660715911  0.500042331
     0.868582056  0.160715909  0.500042331
     0.160715912  0.131417944  0.500042331
     0.660715914  0.631417942  0.500042331
     0.839284091  0.868582053  0.500042331
     0.339284089  0.368582055  0.500042331
     0.222218820  0.871030910  0.500037418
     0.722218819  0.371030908  0.500037418
     0.777781183  0.128969087  0.500037418
     0.277781185  0.628969089  0.500037418
     0.628969092  0.722218815  0.500037418
     0.128969090  0.222218817  0.500037418
     0.371030911  0.277781181  0.500037418
     0.871030913  0.777781180  0.500037418
     0.720293916  0.208455247  0.500057020
     0.220293918  0.708455249  0.500057020
     0.279706087  0.791544750  0.500057020
     0.779706085  0.291544748  0.500057020
     0.291544751  0.220293915  0.500057020
     0.791544753  0.720293913  0.500057020
     0.708455252  0.779706082  0.500057020
     0.208455250  0.279706084  0.500057020
     0.630919445  0.236742869  0.499987135
     0.130919447  0.736742870  0.499987135
     0.369080558  0.763257128  0.499987135
     0.869080557  0.263257126  0.499987135
     0.263257130  0.130919443  0.499987135
     0.763257131  0.630919442  0.499987135
     0.736742874  0.869080553  0.499987135
     0.236742872  0.369080555  0.499987135
     0.555854435  0.387239161  0.500077624
     0.055854437  0.887239162  0.500077624
     0.444145568  0.612760836  0.500077624
     0.944145567  0.112760834  0.500077624
     0.112760838  0.055854433  0.500077624
     0.612760839  0.555854432  0.500077624
     0.887239166  0.944145563  0.500077624
     0.387239164  0.444145565  0.500077624

  ion indices of the primitive-cell ions
   primitive index   ion index
                 1           1
                 2           2
                 3           3
                 4           4
                 5           5
                 6           6
                 7           7
                 8           8
                 9           9
                10          10
                11          11
                12          12
                13          13
                14          14
                15          15
                16          16
                17          17
                18          18
                19          19
                20          20
                21          21
                22          22
                23          23
                24          24
                25          25
                26          26
                27          27
                28          28
                29          29
                30          30
                31          31
                32          32
                33          33
                34          34
                35          35
                36          36
                37          37
                38          38
                39          39
                40          40
                41          41
                42          42
                43          43
                44          44
                45          45
                46          46
                47          47
                48          48
                49          49
                50          50
                51          51
                52          52
                53          53
                54          54
                55          55
                56          56
                57          57
                58          58

----------------------------------------------------------------------------------------

 
 
 KPOINTS: K-Path Generated by VASPKIT.            

Interpolating k-points between supplied coordinates.

 Line segments in fractional coordinates (reciprocal lattice):
    0.500000  0.500000  0.000000  ...  0.500000  0.000000  0.000000
    0.500000  0.000000  0.000000  ...  1.000000  0.000000  0.000000
    1.000000  0.000000  0.000000  ...  0.500000  0.500000  0.000000
    0.500000  0.500000  0.000000  ...  1.000000  1.000000  0.000000
    1.000000  1.000000  0.000000  ...  1.000000  0.500000  0.000000
    1.000000  0.500000  0.000000  ...  0.500000  0.500000  0.000000

 Generated    20 points on each line segment, for a total of    120 k-points:

 Following reciprocal coordinates:
            Coordinates               Weight
  0.500000  0.500000  0.000000      0.008333
  0.500000  0.473684  0.000000      0.008333
  0.500000  0.447368  0.000000      0.008333
  0.500000  0.421053  0.000000      0.008333
  0.500000  0.394737  0.000000      0.008333
  0.500000  0.368421  0.000000      0.008333
  0.500000  0.342105  0.000000      0.008333
  0.500000  0.315789  0.000000      0.008333
  0.500000  0.289474  0.000000      0.008333
  0.500000  0.263158  0.000000      0.008333
  0.500000  0.236842  0.000000      0.008333
  0.500000  0.210526  0.000000      0.008333
  0.500000  0.184211  0.000000      0.008333
  0.500000  0.157895  0.000000      0.008333
  0.500000  0.131579  0.000000      0.008333
  0.500000  0.105263  0.000000      0.008333
  0.500000  0.078947  0.000000      0.008333
  0.500000  0.052632  0.000000      0.008333
  0.500000  0.026316  0.000000      0.008333
  0.500000  0.000000  0.000000      0.008333
  0.500000  0.000000  0.000000      0.008333
  0.526316  0.000000  0.000000      0.008333
  0.552632  0.000000  0.000000      0.008333
  0.578947  0.000000  0.000000      0.008333
  0.605263  0.000000  0.000000      0.008333
  0.631579  0.000000  0.000000      0.008333
  0.657895  0.000000  0.000000      0.008333
  0.684211  0.000000  0.000000      0.008333
  0.710526  0.000000  0.000000      0.008333
  0.736842  0.000000  0.000000      0.008333
  0.763158  0.000000  0.000000      0.008333
  0.789474  0.000000  0.000000      0.008333
  0.815789  0.000000  0.000000      0.008333
  0.842105  0.000000  0.000000      0.008333
  0.868421  0.000000  0.000000      0.008333
  0.894737  0.000000  0.000000      0.008333
  0.921053  0.000000  0.000000      0.008333
  0.947368  0.000000  0.000000      0.008333
  0.973684  0.000000  0.000000      0.008333
  1.000000  0.000000  0.000000      0.008333
  1.000000  0.000000  0.000000      0.008333
  0.973684  0.026316  0.000000      0.008333
  0.947368  0.052632  0.000000      0.008333
  0.921053  0.078947  0.000000      0.008333
  0.894737  0.105263  0.000000      0.008333
  0.868421  0.131579  0.000000      0.008333
  0.842105  0.157895  0.000000      0.008333
  0.815789  0.184211  0.000000      0.008333
  0.789474  0.210526  0.000000      0.008333
  0.763158  0.236842  0.000000      0.008333
  0.736842  0.263158  0.000000      0.008333
  0.710526  0.289474  0.000000      0.008333
  0.684211  0.315789  0.000000      0.008333
  0.657895  0.342105  0.000000      0.008333
  0.631579  0.368421  0.000000      0.008333
  0.605263  0.394737  0.000000      0.008333
  0.578947  0.421053  0.000000      0.008333
  0.552632  0.447368  0.000000      0.008333
  0.526316  0.473684  0.000000      0.008333
  0.500000  0.500000  0.000000      0.008333
  0.500000  0.500000  0.000000      0.008333
  0.526316  0.526316  0.000000      0.008333
  0.552632  0.552632  0.000000      0.008333
  0.578947  0.578947  0.000000      0.008333
  0.605263  0.605263  0.000000      0.008333
  0.631579  0.631579  0.000000      0.008333
  0.657895  0.657895  0.000000      0.008333
  0.684211  0.684211  0.000000      0.008333
  0.710526  0.710526  0.000000      0.008333
  0.736842  0.736842  0.000000      0.008333
  0.763158  0.763158  0.000000      0.008333
  0.789474  0.789474  0.000000      0.008333
  0.815789  0.815789  0.000000      0.008333
  0.842105  0.842105  0.000000      0.008333
  0.868421  0.868421  0.000000      0.008333
  0.894737  0.894737  0.000000      0.008333
  0.921053  0.921053  0.000000      0.008333
  0.947368  0.947368  0.000000      0.008333
  0.973684  0.973684  0.000000      0.008333
  1.000000  1.000000  0.000000      0.008333
  1.000000  1.000000  0.000000      0.008333
  1.000000  0.973684  0.000000      0.008333
  1.000000  0.947368  0.000000      0.008333
  1.000000  0.921053  0.000000      0.008333
  1.000000  0.894737  0.000000      0.008333
  1.000000  0.868421  0.000000      0.008333
  1.000000  0.842105  0.000000      0.008333
  1.000000  0.815789  0.000000      0.008333
  1.000000  0.789474  0.000000      0.008333
  1.000000  0.763158  0.000000      0.008333
  1.000000  0.736842  0.000000      0.008333
  1.000000  0.710526  0.000000      0.008333
  1.000000  0.684211  0.000000      0.008333
  1.000000  0.657895  0.000000      0.008333
  1.000000  0.631579  0.000000      0.008333
  1.000000  0.605263  0.000000      0.008333
  1.000000  0.578947  0.000000      0.008333
  1.000000  0.552632  0.000000      0.008333
  1.000000  0.526316  0.000000      0.008333
  1.000000  0.500000  0.000000      0.008333
  1.000000  0.500000  0.000000      0.008333
  0.973684  0.500000  0.000000      0.008333
  0.947368  0.500000  0.000000      0.008333
  0.921053  0.500000  0.000000      0.008333
  0.894737  0.500000  0.000000      0.008333
  0.868421  0.500000  0.000000      0.008333
  0.842105  0.500000  0.000000      0.008333
  0.815789  0.500000  0.000000      0.008333
  0.789474  0.500000  0.000000      0.008333
  0.763158  0.500000  0.000000      0.008333
  0.736842  0.500000  0.000000      0.008333
  0.710526  0.500000  0.000000      0.008333
  0.684211  0.500000  0.000000      0.008333
  0.657895  0.500000  0.000000      0.008333
  0.631579  0.500000  0.000000      0.008333
  0.605263  0.500000  0.000000      0.008333
  0.578947  0.500000  0.000000      0.008333
  0.552632  0.500000  0.000000      0.008333
  0.526316  0.500000  0.000000      0.008333
  0.500000  0.500000  0.000000      0.008333

 Following cartesian coordinates:
            Coordinates               Weight
  0.034313  0.034313 -0.000000      0.008333
  0.034313  0.032507 -0.000000      0.008333
  0.034313  0.030701 -0.000000      0.008333
  0.034313  0.028895 -0.000000      0.008333
  0.034313  0.027089 -0.000000      0.008333
  0.034313  0.025284 -0.000000      0.008333
  0.034313  0.023478 -0.000000      0.008333
  0.034313  0.021672 -0.000000      0.008333
  0.034313  0.019866 -0.000000      0.008333
  0.034313  0.018060 -0.000000      0.008333
  0.034313  0.016254 -0.000000      0.008333
  0.034313  0.014448 -0.000000      0.008333
  0.034313  0.012642 -0.000000      0.008333
  0.034313  0.010836 -0.000000      0.008333
  0.034313  0.009030 -0.000000      0.008333
  0.034313  0.007224 -0.000000      0.008333
  0.034313  0.005418 -0.000000      0.008333
  0.034313  0.003612 -0.000000      0.008333
  0.034313  0.001806 -0.000000      0.008333
  0.034313 -0.000000 -0.000000      0.008333
  0.034313 -0.000000 -0.000000      0.008333
  0.036119 -0.000000 -0.000000      0.008333
  0.037925 -0.000000 -0.000000      0.008333
  0.039731 -0.000000 -0.000000      0.008333
  0.041537 -0.000000 -0.000000      0.008333
  0.043343 -0.000000 -0.000000      0.008333
  0.045149 -0.000000 -0.000000      0.008333
  0.046955 -0.000000 -0.000000      0.008333
  0.048761 -0.000000 -0.000000      0.008333
  0.050567 -0.000000 -0.000000      0.008333
  0.052373 -0.000000 -0.000000      0.008333
  0.054179 -0.000000 -0.000000      0.008333
  0.055985 -0.000000 -0.000000      0.008333
  0.057791 -0.000000 -0.000000      0.008333
  0.059597 -0.000000 -0.000000      0.008333
  0.061403 -0.000000 -0.000000      0.008333
  0.063209 -0.000000 -0.000000      0.008333
  0.065015 -0.000000 -0.000000      0.008333
  0.066821 -0.000000 -0.000000      0.008333
  0.068627 -0.000000 -0.000000      0.008333
  0.068627 -0.000000 -0.000000      0.008333
  0.066821  0.001806 -0.000000      0.008333
  0.065015  0.003612 -0.000000      0.008333
  0.063209  0.005418 -0.000000      0.008333
  0.061403  0.007224 -0.000000      0.008333
  0.059597  0.009030 -0.000000      0.008333
  0.057791  0.010836 -0.000000      0.008333
  0.055985  0.012642 -0.000000      0.008333
  0.054179  0.014448 -0.000000      0.008333
  0.052373  0.016254 -0.000000      0.008333
  0.050567  0.018060 -0.000000      0.008333
  0.048761  0.019866 -0.000000      0.008333
  0.046955  0.021672 -0.000000      0.008333
  0.045149  0.023478 -0.000000      0.008333
  0.043343  0.025284 -0.000000      0.008333
  0.041537  0.027089 -0.000000      0.008333
  0.039731  0.028895 -0.000000      0.008333
  0.037925  0.030701 -0.000000      0.008333
  0.036119  0.032507 -0.000000      0.008333
  0.034313  0.034313 -0.000000      0.008333
  0.034313  0.034313 -0.000000      0.008333
  0.036119  0.036119 -0.000000      0.008333
  0.037925  0.037925 -0.000000      0.008333
  0.039731  0.039731 -0.000000      0.008333
  0.041537  0.041537 -0.000000      0.008333
  0.043343  0.043343 -0.000000      0.008333
  0.045149  0.045149 -0.000000      0.008333
  0.046955  0.046955 -0.000000      0.008333
  0.048761  0.048761 -0.000000      0.008333
  0.050567  0.050567 -0.000000      0.008333
  0.052373  0.052373 -0.000000      0.008333
  0.054179  0.054179 -0.000000      0.008333
  0.055985  0.055985 -0.000000      0.008333
  0.057791  0.057791 -0.000000      0.008333
  0.059597  0.059597 -0.000000      0.008333
  0.061403  0.061403 -0.000000      0.008333
  0.063209  0.063209 -0.000000      0.008333
  0.065015  0.065015 -0.000000      0.008333
  0.066821  0.066821 -0.000000      0.008333
  0.068627  0.068627 -0.000000      0.008333
  0.068627  0.068627 -0.000000      0.008333
  0.068627  0.066821 -0.000000      0.008333
  0.068627  0.065015 -0.000000      0.008333
  0.068627  0.063209 -0.000000      0.008333
  0.068627  0.061403 -0.000000      0.008333
  0.068627  0.059597 -0.000000      0.008333
  0.068627  0.057791 -0.000000      0.008333
  0.068627  0.055985 -0.000000      0.008333
  0.068627  0.054179 -0.000000      0.008333
  0.068627  0.052373 -0.000000      0.008333
  0.068627  0.050567 -0.000000      0.008333
  0.068627  0.048761 -0.000000      0.008333
  0.068627  0.046955 -0.000000      0.008333
  0.068627  0.045149 -0.000000      0.008333
  0.068627  0.043343 -0.000000      0.008333
  0.068627  0.041537 -0.000000      0.008333
  0.068627  0.039731 -0.000000      0.008333
  0.068627  0.037925 -0.000000      0.008333
  0.068627  0.036119 -0.000000      0.008333
  0.068627  0.034313 -0.000000      0.008333
  0.068627  0.034313 -0.000000      0.008333
  0.066821  0.034313 -0.000000      0.008333
  0.065015  0.034313 -0.000000      0.008333
  0.063209  0.034313 -0.000000      0.008333
  0.061403  0.034313 -0.000000      0.008333
  0.059597  0.034313 -0.000000      0.008333
  0.057791  0.034313 -0.000000      0.008333
  0.055985  0.034313 -0.000000      0.008333
  0.054179  0.034313 -0.000000      0.008333
  0.052373  0.034313 -0.000000      0.008333
  0.050567  0.034313 -0.000000      0.008333
  0.048761  0.034313 -0.000000      0.008333
  0.046955  0.034313 -0.000000      0.008333
  0.045149  0.034313 -0.000000      0.008333
  0.043343  0.034313 -0.000000      0.008333
  0.041537  0.034313 -0.000000      0.008333
  0.039731  0.034313 -0.000000      0.008333
  0.037925  0.034313 -0.000000      0.008333
  0.036119  0.034313 -0.000000      0.008333
  0.034313  0.034313 -0.000000      0.008333
 


--------------------------------------------------------------------------------------------------------




 Dimension of arrays:
   k-points           NKPTS =    120   k-points in BZ     NKDIM =    120   number of bands    NBANDS=    140
   number of dos      NEDOS =    301   number of ions     NIONS =     58
   non local maximal  LDIM  =      6   non local SUM 2l+1 LMDIM =     18
   total plane-waves  NPLWV = 537600
   max r-space proj   IRMAX =   1639   max aug-charges    IRDMAX=   6072
   dimension x,y,z NGX =    80 NGY =   80 NGZ =   84
   dimension x,y,z NGXF=   160 NGYF=  160 NGZF=  168
   support grid    NGXF=   160 NGYF=  160 NGZF=  168
   ions per type =               2  16  32   8
   NGX,Y,Z   is equivalent  to a cutoff of   9.13,  9.13,  9.31 a.u.
   NGXF,Y,Z  is equivalent  to a cutoff of  18.25, 18.25, 18.62 a.u.

 SYSTEM =  unknown system                          
 POSCAR =  Generated by VASPKIT code               

 Startparameter for this run:
   NWRITE =      2    write-flag & timer
   PREC   = normal    normal or accurate (medium, high low for compatibility)
   ISTART =      0    job   : 0-new  1-cont  2-samecut
   ICHARG =     11    charge: 1-file 2-atom 10-const
   ISPIN  =      2    spin polarized calculation?
   LNONCOLLINEAR =      F non collinear calculations
   LSORBIT =      F    spin-orbit coupling
   INIWAV =      1    electr: 0-lowe 1-rand  2-diag
   LASPH  =      F    aspherical Exc in radial PAW
 Electronic Relaxation 1
   ENCUT  =  500.0 eV  36.75 Ry    6.06 a.u.  26.57 26.57 27.35*2*pi/ulx,y,z
   ENINI  =  500.0     initial cutoff
   ENAUG  =  644.9 eV  augmentation charge cutoff
   NELM   =    200;   NELMIN=  2; NELMDL=  0     # of ELM steps 
   EDIFF  = 0.1E-04   stopping-criterion for ELM
   LREAL  =      T    real-space projection
   NLSPLINE    = F    spline interpolate recip. space projectors
   LCOMPAT=      F    compatible to vasp.4.4
   GGA_COMPAT  = T    GGA compatible to vasp.4.4-vasp.4.6
   LMAXPAW     = -100 max onsite density
   LMAXMIX     =    4 max onsite mixed and CHGCAR
   VOSKOWN=      0    Vosko Wilk Nusair interpolation
   ROPT   =   -0.00050  -0.00050  -0.00050  -0.00050
 Ionic relaxation
   EDIFFG = -.1E-01   stopping-criterion for IOM
   NSW    =      0    number of steps for IOM
   NBLOCK =      1;   KBLOCK =      1    inner block; outer block 
   IBRION =     -1    ionic relax: 0-MD 1-quasi-New 2-CG
   NFREE  =      0    steps in history (QN), initial steepest desc. (CG)
   ISIF   =      2    stress and relaxation
   IWAVPR =     10    prediction:  0-non 1-charg 2-wave 3-comb
   ISYM   =      2    0-nonsym 1-usesym 2-fastsym
   LCORR  =      T    Harris-Foulkes like correction to forces

   POTIM  = 0.5000    time-step for ionic-motion
   TEIN   =    0.0    initial temperature
   TEBEG  =    0.0;   TEEND  =   0.0 temperature during run
   SMASS  =  -3.00    Nose mass-parameter (am)
   estimated Nose-frequenzy (Omega)   =  0.10E-29 period in steps = 0.13E+47 mass=  -0.485E-26a.u.
   SCALEE = 1.0000    scale energy and forces
   NPACO  =    256;   APACO  = 10.0  distance and # of slots for P.C.
   PSTRESS=    0.0 pullay stress

  Mass of Ions in am
   POMASS =  52.00  1.00 12.01 16.00
  Ionic Valenz
   ZVAL   =  12.00  1.00  4.00  6.00
  Atomic Wigner-Seitz radii
   RWIGS  =  -1.00 -1.00 -1.00 -1.00
  virtual crystal weights 
   VCA    =   1.00  1.00  1.00  1.00
   NELECT =     216.0000    total number of electrons
   NUPDOWN=      -1.0000    fix difference up-down

 DOS related values:
   EMIN   =  10.00;   EMAX   =-10.00  energy-range for DOS
   EFERMI =   0.00
   ISMEAR =     1;   SIGMA  =   0.20  broadening in eV -4-tet -1-fermi 0-gaus

 Electronic relaxation 2 (details)
   IALGO  =     68    algorithm
   LDIAG  =      T    sub-space diagonalisation (order eigenvalues)
   LSUBROT=      F    optimize rotation matrix (better conditioning)
   TURBO    =      0    0=normal 1=particle mesh
   IRESTART =      0    0=no restart 2=restart with 2 vectors
   NREBOOT  =      0    no. of reboots
   NMIN     =      0    reboot dimension
   EREF     =   0.00    reference energy to select bands
   IMIX   =      4    mixing-type and parameters
     AMIX     =   0.20;   BMIX     =  0.00
     AMIX_MAG =   0.80;   BMIX_MAG =  0.00
     AMIN     =   0.10
     WC   =   100.;   INIMIX=   1;  MIXPRE=   1;  MAXMIX= -45

 Intra band minimization:
   WEIMIN = 0.0000     energy-eigenvalue tresh-hold
   EBREAK =  0.18E-07  absolut break condition
   DEPER  =   0.30     relativ break condition  

   TIME   =   0.40     timestep for ELM

  volume/ion in A,a.u.               =      54.91       370.57
  Fermi-wavevector in a.u.,A,eV,Ry     =   0.667612  1.261604  6.064201  0.445706
  Thomas-Fermi vector in A             =   1.742272
 
 Write flags
   LWAVE        =      F    write WAVECAR
   LDOWNSAMPLE  =      F    k-point downsampling of WAVECAR
   LCHARG       =      F    write CHGCAR
   LVTOT        =      T    write LOCPOT, total local potential
   LVHAR        =      F    write LOCPOT, Hartree potential only
   LELF         =      F    write electronic localiz. function (ELF)
   LORBIT       =     11    0 simple, 1 ext, 2 COOP (PROOUT), +10 PAW based schemes


 Dipole corrections
   LMONO  =      F    monopole corrections only (constant potential shift)
   LDIPOL =      F    correct potential (dipole corrections)
   IDIPOL =      0    1-x, 2-y, 3-z, 4-all directions 
   EPSILON=  1.0000000 bulk dielectric constant

 LDA+U is selected, type is set to LDAUTYPE =  2
   angular momentum for each species LDAUL =     2   -1   -1   -1
   U (eV)           for each species LDAUU =   3.0  0.0  0.0  0.0
   J (eV)           for each species LDAUJ =   1.0  0.0  0.0  0.0
 Exchange correlation treatment:
   GGA     =    --    GGA type
   LEXCH   =     8    internal setting for exchange type
   LIBXC   =     F    Libxc                    
   VOSKOWN =     0    Vosko Wilk Nusair interpolation
   LHFCALC =     F    Hartree Fock is set to
   LHFONE  =     F    Hartree Fock one center treatment
   AEXX    =    0.0000 exact exchange contribution

 Linear response parameters
   LEPSILON=     F    determine dielectric tensor
   LRPA    =     F    only Hartree local field effects (RPA)
   LNABLA  =     F    use nabla operator in PAW spheres
   LVEL    =     F    velocity operator in full k-point grid
   CSHIFT  =0.1000    complex shift for real part using Kramers Kronig
   OMEGAMAX=  -1.0    maximum frequency
   DEG_THRESHOLD= 0.2000000E-02 threshold for treating states as degnerate
   RTIME   =   -0.100 relaxation time in fs
  (WPLASMAI=    0.000 imaginary part of plasma frequency in eV, 0.658/RTIME)
   DFIELD  = 0.0000000 0.0000000 0.0000000 field for delta impulse in time
 
  Optional k-point grid parameters
   LKPOINTS_OPT  =     F    use optional k-point grid
   KPOINTS_OPT_MODE=     1    mode for optional k-point grid
 
 Orbital magnetization related:
   ORBITALMAG=     F  switch on orbital magnetization
   LCHIMAG   =     F  perturbation theory with respect to B field
   DQ        =  0.001000  dq finite difference perturbation B field
   LLRAUG    =     F  two centre corrections for induced B field



--------------------------------------------------------------------------------------------------------


 Static calculation
 charge density and potential remain constant during run
 spin polarized calculation
 RMM-DIIS sequential band-by-band and
  variant of blocked Davidson during initial phase
 perform sub-space diagonalisation
    before iterative eigenvector-optimisation
 no mixing
 using additional bands           32
 real space projection scheme for non local part
 use partial core corrections
 calculate Harris-corrections to forces 
   (improved forces if not selfconsistent)
 use gradient corrections 
 WARNING: stress and forces are not correct
  (second derivative of E(xc) not defined)
 use of overlap-Matrix (Vanderbilt PP)
 Methfessel and Paxton  Order N= 1 SIGMA  =   0.20


--------------------------------------------------------------------------------------------------------


  energy-cutoff  :      500.00
  volume of cell :     3184.97
      direct lattice vectors                 reciprocal lattice vectors
    14.571592331  0.000000000  0.000000000     0.068626680 -0.000000000 -0.000000000
     0.000000000 14.571592331  0.000000000     0.000000000  0.068626680 -0.000000000
     0.000000000  0.000000000 15.000000000     0.000000000  0.000000000  0.066666667

  length of vectors
    14.571592331 14.571592331 15.000000000     0.068626680  0.068626680  0.066666667


 
 k-points in units of 2pi/SCALE and weight: K-Path Generated by VASPKIT.            
   0.03431334  0.03431334 -0.00000000       0.008
   0.03431334  0.03250737 -0.00000000       0.008
   0.03431334  0.03070141 -0.00000000       0.008
   0.03431334  0.02889544 -0.00000000       0.008
   0.03431334  0.02708948 -0.00000000       0.008
   0.03431334  0.02528351 -0.00000000       0.008
   0.03431334  0.02347755 -0.00000000       0.008
   0.03431334  0.02167158 -0.00000000       0.008
   0.03431334  0.01986562 -0.00000000       0.008
   0.03431334  0.01805965 -0.00000000       0.008
   0.03431334  0.01625369 -0.00000000       0.008
   0.03431334  0.01444772 -0.00000000       0.008
   0.03431334  0.01264176 -0.00000000       0.008
   0.03431334  0.01083579 -0.00000000       0.008
   0.03431334  0.00902983 -0.00000000       0.008
   0.03431334  0.00722386 -0.00000000       0.008
   0.03431334  0.00541790 -0.00000000       0.008
   0.03431334  0.00361193 -0.00000000       0.008
   0.03431334  0.00180597 -0.00000000       0.008
   0.03431334 -0.00000000 -0.00000000       0.008
   0.03431334 -0.00000000 -0.00000000       0.008
   0.03611931 -0.00000000 -0.00000000       0.008
   0.03792527 -0.00000000 -0.00000000       0.008
   0.03973124 -0.00000000 -0.00000000       0.008
   0.04153720 -0.00000000 -0.00000000       0.008
   0.04334317 -0.00000000 -0.00000000       0.008
   0.04514913 -0.00000000 -0.00000000       0.008
   0.04695510 -0.00000000 -0.00000000       0.008
   0.04876106 -0.00000000 -0.00000000       0.008
   0.05056703 -0.00000000 -0.00000000       0.008
   0.05237299 -0.00000000 -0.00000000       0.008
   0.05417896 -0.00000000 -0.00000000       0.008
   0.05598492 -0.00000000 -0.00000000       0.008
   0.05779089 -0.00000000 -0.00000000       0.008
   0.05959685 -0.00000000 -0.00000000       0.008
   0.06140282 -0.00000000 -0.00000000       0.008
   0.06320878 -0.00000000 -0.00000000       0.008
   0.06501475 -0.00000000 -0.00000000       0.008
   0.06682071 -0.00000000 -0.00000000       0.008
   0.06862668 -0.00000000 -0.00000000       0.008
   0.06862668 -0.00000000 -0.00000000       0.008
   0.06682071  0.00180597 -0.00000000       0.008
   0.06501475  0.00361193 -0.00000000       0.008
   0.06320878  0.00541790 -0.00000000       0.008
   0.06140282  0.00722386 -0.00000000       0.008
   0.05959685  0.00902983 -0.00000000       0.008
   0.05779089  0.01083579 -0.00000000       0.008
   0.05598492  0.01264176 -0.00000000       0.008
   0.05417896  0.01444772 -0.00000000       0.008
   0.05237299  0.01625369 -0.00000000       0.008
   0.05056703  0.01805965 -0.00000000       0.008
   0.04876106  0.01986562 -0.00000000       0.008
   0.04695510  0.02167158 -0.00000000       0.008
   0.04514913  0.02347755 -0.00000000       0.008
   0.04334317  0.02528351 -0.00000000       0.008
   0.04153720  0.02708948 -0.00000000       0.008
   0.03973124  0.02889544 -0.00000000       0.008
   0.03792527  0.03070141 -0.00000000       0.008
   0.03611931  0.03250737 -0.00000000       0.008
   0.03431334  0.03431334 -0.00000000       0.008
   0.03431334  0.03431334 -0.00000000       0.008
   0.03611931  0.03611931 -0.00000000       0.008
   0.03792527  0.03792527 -0.00000000       0.008
   0.03973124  0.03973124 -0.00000000       0.008
   0.04153720  0.04153720 -0.00000000       0.008
   0.04334317  0.04334317 -0.00000000       0.008
   0.04514913  0.04514913 -0.00000000       0.008
   0.04695510  0.04695510 -0.00000000       0.008
   0.04876106  0.04876106 -0.00000000       0.008
   0.05056703  0.05056703 -0.00000000       0.008
   0.05237299  0.05237299 -0.00000000       0.008
   0.05417896  0.05417896 -0.00000000       0.008
   0.05598492  0.05598492 -0.00000000       0.008
   0.05779089  0.05779089 -0.00000000       0.008
   0.05959685  0.05959685 -0.00000000       0.008
   0.06140282  0.06140282 -0.00000000       0.008
   0.06320878  0.06320878 -0.00000000       0.008
   0.06501475  0.06501475 -0.00000000       0.008
   0.06682071  0.06682071 -0.00000000       0.008
   0.06862668  0.06862668 -0.00000000       0.008
   0.06862668  0.06862668 -0.00000000       0.008
   0.06862668  0.06682071 -0.00000000       0.008
   0.06862668  0.06501475 -0.00000000       0.008
   0.06862668  0.06320878 -0.00000000       0.008
   0.06862668  0.06140282 -0.00000000       0.008
   0.06862668  0.05959685 -0.00000000       0.008
   0.06862668  0.05779089 -0.00000000       0.008
   0.06862668  0.05598492 -0.00000000       0.008
   0.06862668  0.05417896 -0.00000000       0.008
   0.06862668  0.05237299 -0.00000000       0.008
   0.06862668  0.05056703 -0.00000000       0.008
   0.06862668  0.04876106 -0.00000000       0.008
   0.06862668  0.04695510 -0.00000000       0.008
   0.06862668  0.04514913 -0.00000000       0.008
   0.06862668  0.04334317 -0.00000000       0.008
   0.06862668  0.04153720 -0.00000000       0.008
   0.06862668  0.03973124 -0.00000000       0.008
   0.06862668  0.03792527 -0.00000000       0.008
   0.06862668  0.03611931 -0.00000000       0.008
   0.06862668  0.03431334 -0.00000000       0.008
   0.06862668  0.03431334 -0.00000000       0.008
   0.06682071  0.03431334 -0.00000000       0.008
   0.06501475  0.03431334 -0.00000000       0.008
   0.06320878  0.03431334 -0.00000000       0.008
   0.06140282  0.03431334 -0.00000000       0.008
   0.05959685  0.03431334 -0.00000000       0.008
   0.05779089  0.03431334 -0.00000000       0.008
   0.05598492  0.03431334 -0.00000000       0.008
   0.05417896  0.03431334 -0.00000000       0.008
   0.05237299  0.03431334 -0.00000000       0.008
   0.05056703  0.03431334 -0.00000000       0.008
   0.04876106  0.03431334 -0.00000000       0.008
   0.04695510  0.03431334 -0.00000000       0.008
   0.04514913  0.03431334 -0.00000000       0.008
   0.04334317  0.03431334 -0.00000000       0.008
   0.04153720  0.03431334 -0.00000000       0.008
   0.03973124  0.03431334 -0.00000000       0.008
   0.03792527  0.03431334 -0.00000000       0.008
   0.03611931  0.03431334 -0.00000000       0.008
   0.03431334  0.03431334 -0.00000000       0.008
 
 k-points in reciprocal lattice and weights: K-Path Generated by VASPKIT.            
   0.50000000  0.50000000  0.00000000       0.008
   0.50000000  0.47368421  0.00000000       0.008
   0.50000000  0.44736842  0.00000000       0.008
   0.50000000  0.42105263  0.00000000       0.008
   0.50000000  0.39473684  0.00000000       0.008
   0.50000000  0.36842105  0.00000000       0.008
   0.50000000  0.34210526  0.00000000       0.008
   0.50000000  0.31578947  0.00000000       0.008
   0.50000000  0.28947368  0.00000000       0.008
   0.50000000  0.26315789  0.00000000       0.008
   0.50000000  0.23684211  0.00000000       0.008
   0.50000000  0.21052632  0.00000000       0.008
   0.50000000  0.18421053  0.00000000       0.008
   0.50000000  0.15789474  0.00000000       0.008
   0.50000000  0.13157895  0.00000000       0.008
   0.50000000  0.10526316  0.00000000       0.008
   0.50000000  0.07894737  0.00000000       0.008
   0.50000000  0.05263158  0.00000000       0.008
   0.50000000  0.02631579  0.00000000       0.008
   0.50000000  0.00000000  0.00000000       0.008
   0.50000000  0.00000000  0.00000000       0.008
   0.52631579  0.00000000  0.00000000       0.008
   0.55263158  0.00000000  0.00000000       0.008
   0.57894737  0.00000000  0.00000000       0.008
   0.60526316  0.00000000  0.00000000       0.008
   0.63157895  0.00000000  0.00000000       0.008
   0.65789474  0.00000000  0.00000000       0.008
   0.68421053  0.00000000  0.00000000       0.008
   0.71052632  0.00000000  0.00000000       0.008
   0.73684211  0.00000000  0.00000000       0.008
   0.76315789  0.00000000  0.00000000       0.008
   0.78947368  0.00000000  0.00000000       0.008
   0.81578947  0.00000000  0.00000000       0.008
   0.84210526  0.00000000  0.00000000       0.008
   0.86842105  0.00000000  0.00000000       0.008
   0.89473684  0.00000000  0.00000000       0.008
   0.92105263  0.00000000  0.00000000       0.008
   0.94736842  0.00000000  0.00000000       0.008
   0.97368421  0.00000000  0.00000000       0.008
   1.00000000  0.00000000  0.00000000       0.008
   1.00000000  0.00000000  0.00000000       0.008
   0.97368421  0.02631579  0.00000000       0.008
   0.94736842  0.05263158  0.00000000       0.008
   0.92105263  0.07894737  0.00000000       0.008
   0.89473684  0.10526316  0.00000000       0.008
   0.86842105  0.13157895  0.00000000       0.008
   0.84210526  0.15789474  0.00000000       0.008
   0.81578947  0.18421053  0.00000000       0.008
   0.78947368  0.21052632  0.00000000       0.008
   0.76315789  0.23684211  0.00000000       0.008
   0.73684211  0.26315789  0.00000000       0.008
   0.71052632  0.28947368  0.00000000       0.008
   0.68421053  0.31578947  0.00000000       0.008
   0.65789474  0.34210526  0.00000000       0.008
   0.63157895  0.36842105  0.00000000       0.008
   0.60526316  0.39473684  0.00000000       0.008
   0.57894737  0.42105263  0.00000000       0.008
   0.55263158  0.44736842  0.00000000       0.008
   0.52631579  0.47368421  0.00000000       0.008
   0.50000000  0.50000000  0.00000000       0.008
   0.50000000  0.50000000  0.00000000       0.008
   0.52631579  0.52631579  0.00000000       0.008
   0.55263158  0.55263158  0.00000000       0.008
   0.57894737  0.57894737  0.00000000       0.008
   0.60526316  0.60526316  0.00000000       0.008
   0.63157895  0.63157895  0.00000000       0.008
   0.65789474  0.65789474  0.00000000       0.008
   0.68421053  0.68421053  0.00000000       0.008
   0.71052632  0.71052632  0.00000000       0.008
   0.73684211  0.73684211  0.00000000       0.008
   0.76315789  0.76315789  0.00000000       0.008
   0.78947368  0.78947368  0.00000000       0.008
   0.81578947  0.81578947  0.00000000       0.008
   0.84210526  0.84210526  0.00000000       0.008
   0.86842105  0.86842105  0.00000000       0.008
   0.89473684  0.89473684  0.00000000       0.008
   0.92105263  0.92105263  0.00000000       0.008
   0.94736842  0.94736842  0.00000000       0.008
   0.97368421  0.97368421  0.00000000       0.008
   1.00000000  1.00000000  0.00000000       0.008
   1.00000000  1.00000000  0.00000000       0.008
   1.00000000  0.97368421  0.00000000       0.008
   1.00000000  0.94736842  0.00000000       0.008
   1.00000000  0.92105263  0.00000000       0.008
   1.00000000  0.89473684  0.00000000       0.008
   1.00000000  0.86842105  0.00000000       0.008
   1.00000000  0.84210526  0.00000000       0.008
   1.00000000  0.81578947  0.00000000       0.008
   1.00000000  0.78947368  0.00000000       0.008
   1.00000000  0.76315789  0.00000000       0.008
   1.00000000  0.73684211  0.00000000       0.008
   1.00000000  0.71052632  0.00000000       0.008
   1.00000000  0.68421053  0.00000000       0.008
   1.00000000  0.65789474  0.00000000       0.008
   1.00000000  0.63157895  0.00000000       0.008
   1.00000000  0.60526316  0.00000000       0.008
   1.00000000  0.57894737  0.00000000       0.008
   1.00000000  0.55263158  0.00000000       0.008
   1.00000000  0.52631579  0.00000000       0.008
   1.00000000  0.50000000  0.00000000       0.008
   1.00000000  0.50000000  0.00000000       0.008
   0.97368421  0.50000000  0.00000000       0.008
   0.94736842  0.50000000  0.00000000       0.008
   0.92105263  0.50000000  0.00000000       0.008
   0.89473684  0.50000000  0.00000000       0.008
   0.86842105  0.50000000  0.00000000       0.008
   0.84210526  0.50000000  0.00000000       0.008
   0.81578947  0.50000000  0.00000000       0.008
   0.78947368  0.50000000  0.00000000       0.008
   0.76315789  0.50000000  0.00000000       0.008
   0.73684211  0.50000000  0.00000000       0.008
   0.71052632  0.50000000  0.00000000       0.008
   0.68421053  0.50000000  0.00000000       0.008
   0.65789474  0.50000000  0.00000000       0.008
   0.63157895  0.50000000  0.00000000       0.008
   0.60526316  0.50000000  0.00000000       0.008
   0.57894737  0.50000000  0.00000000       0.008
   0.55263158  0.50000000  0.00000000       0.008
   0.52631579  0.50000000  0.00000000       0.008
   0.50000000  0.50000000  0.00000000       0.008
 
 position of ions in fractional coordinates (direct lattice) 
   0.00000000  0.00000000  0.49997171
   0.50000000  0.50000000  0.49997171
   0.24241403  0.94243522  0.50000607
   0.74241403  0.44243522  0.50000607
   0.75758597  0.05756478  0.50000607
   0.25758597  0.55756478  0.50000607
   0.55756478  0.74241403  0.50000607
   0.05756478  0.24241403  0.50000607
   0.44243522  0.25758597  0.50000607
   0.94243522  0.75758597  0.50000607
   0.56922520  0.19489824  0.49992238
   0.06922520  0.69489824  0.49992238
   0.43077480  0.80510176  0.49992238
   0.93077480  0.30510176  0.49992238
   0.30510176  0.06922520  0.49992238
   0.80510176  0.56922520  0.49992238
   0.69489824  0.93077480  0.49992238
   0.19489824  0.43077480  0.49992238
   0.63141795  0.33928409  0.50004233
   0.13141795  0.83928409  0.50004233
   0.36858206  0.66071591  0.50004233
   0.86858206  0.16071591  0.50004233
   0.16071591  0.13141794  0.50004233
   0.66071591  0.63141794  0.50004233
   0.83928409  0.86858205  0.50004233
   0.33928409  0.36858205  0.50004233
   0.22221882  0.87103091  0.50003742
   0.72221882  0.37103091  0.50003742
   0.77778118  0.12896909  0.50003742
   0.27778118  0.62896909  0.50003742
   0.62896909  0.72221882  0.50003742
   0.12896909  0.22221882  0.50003742
   0.37103091  0.27778118  0.50003742
   0.87103091  0.77778118  0.50003742
   0.72029392  0.20845525  0.50005702
   0.22029392  0.70845525  0.50005702
   0.27970609  0.79154475  0.50005702
   0.77970609  0.29154475  0.50005702
   0.29154475  0.22029391  0.50005702
   0.79154475  0.72029391  0.50005702
   0.70845525  0.77970608  0.50005702
   0.20845525  0.27970608  0.50005702
   0.63091944  0.23674287  0.49998714
   0.13091945  0.73674287  0.49998714
   0.36908056  0.76325713  0.49998714
   0.86908056  0.26325713  0.49998714
   0.26325713  0.13091944  0.49998714
   0.76325713  0.63091944  0.49998714
   0.73674287  0.86908055  0.49998714
   0.23674287  0.36908056  0.49998714
   0.55585443  0.38723916  0.50007762
   0.05585444  0.88723916  0.50007762
   0.44414557  0.61276084  0.50007762
   0.94414557  0.11276083  0.50007762
   0.11276084  0.05585443  0.50007762
   0.61276084  0.55585443  0.50007762
   0.88723917  0.94414556  0.50007762
   0.38723916  0.44414557  0.50007762
 
 position of ions in cartesian coordinates  (Angst):
   0.00000000  0.00000000  7.49957567
   7.28579619  7.28579614  7.49957567
   3.53235848 13.73278179  7.50009109
  10.81815462  6.44698560  7.50009109
  11.03923390  0.83881049  7.50009109
   3.75343776  8.12460668  7.50009109
   8.12460673 10.81815457  7.50009109
   0.83881054  3.53235843  7.50009109
   6.44698565  3.75343771  7.50009109
  13.73278184 11.03923385  7.50009109
   8.29451757  2.83997765  7.49883564
   1.00872143 10.12577384  7.49883564
   6.27707481 11.73161464  7.49883564
  13.56287095  4.44581845  7.49883564
   4.44581849  1.00872138  7.49883564
  11.73161469  8.29451752  7.49883564
  10.12577388 13.56287090  7.49883564
   2.83997769  6.27707476  7.49883564
   9.20076489  4.94390938  7.50063496
   1.91496875 12.22970557  7.50063496
   5.37082749  9.62768290  7.50063496
  12.65662363  2.34188671  7.50063496
   2.34188676  1.91496870  7.50063496
   9.62768295  9.20076484  7.50063496
  12.22970562 12.65662358  7.50063496
   4.94390943  5.37082744  7.50063496
   3.23808206 12.69230732  7.50056127
  10.52387820  5.40651113  7.50056127
  11.33351032  1.87928496  7.50056127
   4.04771418  9.16508115  7.50056127
   9.16508120 10.52387815  7.50056127
   1.87928501  3.23808201  7.50056127
   5.40651118  4.04771413  7.50056127
  12.69230737 11.33351027  7.50056127
  10.49582931  3.03752488  7.50085529
   3.21003317 10.32332107  7.50085529
   4.07576307 11.53406740  7.50085529
  11.36155921  4.24827121  7.50085529
   4.24827126  3.21003312  7.50085529
  11.53406745 10.49582926  7.50085529
  10.32332112 11.36155917  7.50085529
   3.03752493  4.07576302  7.50085529
   9.19350094  3.44972057  7.49980703
   1.90770480 10.73551676  7.49980703
   5.37809144 11.12187171  7.49980703
  12.66388758  3.83607552  7.49980703
   3.83607557  1.90770475  7.49980703
  11.12187176  9.19350090  7.49980703
  10.73551681 12.66388753  7.49980703
   3.44972062  5.37809139  7.49980703
   8.09968422  5.64269119  7.50116436
   0.81388808 12.92848738  7.50116436
   6.47190816  8.92890110  7.50116436
  13.75770430  1.64310491  7.50116436
   1.64310496  0.81388803  7.50116436
   8.92890114  8.09968417  7.50116436
  12.92848742 13.75770425  7.50116436
   5.64269123  6.47190811  7.50116436
 


--------------------------------------------------------------------------------------------------------


 k-point   1 :   0.5000 0.5000 0.0000  plane waves:   80804
 k-point   2 :   0.5000 0.4737 0.0000  plane waves:   80852
 k-point   3 :   0.5000 0.4474 0.0000  plane waves:   80856
 k-point   4 :   0.5000 0.4211 0.0000  plane waves:   80846
 k-point   5 :   0.5000 0.3947 0.0000  plane waves:   80864
 k-point   6 :   0.5000 0.3684 0.0000  plane waves:   80900
 k-point   7 :   0.5000 0.3421 0.0000  plane waves:   80884
 k-point   8 :   0.5000 0.3158 0.0000  plane waves:   80898
 k-point   9 :   0.5000 0.2895 0.0000  plane waves:   80882
 k-point  10 :   0.5000 0.2632 0.0000  plane waves:   80892
 k-point  11 :   0.5000 0.2368 0.0000  plane waves:   80912
 k-point  12 :   0.5000 0.2105 0.0000  plane waves:   80896
 k-point  13 :   0.5000 0.1842 0.0000  plane waves:   80866
 k-point  14 :   0.5000 0.1579 0.0000  plane waves:   80860
 k-point  15 :   0.5000 0.1316 0.0000  plane waves:   80828
 k-point  16 :   0.5000 0.1053 0.0000  plane waves:   80830
 k-point  17 :   0.5000 0.0789 0.0000  plane waves:   80836
 k-point  18 :   0.5000 0.0526 0.0000  plane waves:   80814
 k-point  19 :   0.5000 0.0263 0.0000  plane waves:   80794
 k-point  20 :   0.5000 0.0000 0.0000  plane waves:   80810
 k-point  21 :   0.5000 0.0000 0.0000  plane waves:   80810
 k-point  22 :   0.5263 0.0000 0.0000  plane waves:   80804
 k-point  23 :   0.5526 0.0000 0.0000  plane waves:   80786
 k-point  24 :   0.5789 0.0000 0.0000  plane waves:   80799
 k-point  25 :   0.6053 0.0000 0.0000  plane waves:   80801
 k-point  26 :   0.6316 0.0000 0.0000  plane waves:   80843
 k-point  27 :   0.6579 0.0000 0.0000  plane waves:   80839
 k-point  28 :   0.6842 0.0000 0.0000  plane waves:   80865
 k-point  29 :   0.7105 0.0000 0.0000  plane waves:   80865
 k-point  30 :   0.7368 0.0000 0.0000  plane waves:   80841
 k-point  31 :   0.7632 0.0000 0.0000  plane waves:   80897
 k-point  32 :   0.7895 0.0000 0.0000  plane waves:   80897
 k-point  33 :   0.8158 0.0000 0.0000  plane waves:   80921
 k-point  34 :   0.8421 0.0000 0.0000  plane waves:   80919
 k-point  35 :   0.8684 0.0000 0.0000  plane waves:   80919
 k-point  36 :   0.8947 0.0000 0.0000  plane waves:   80939
 k-point  37 :   0.9211 0.0000 0.0000  plane waves:   80957
 k-point  38 :   0.9474 0.0000 0.0000  plane waves:   80947
 k-point  39 :   0.9737 0.0000 0.0000  plane waves:   80947
 k-point  40 :   1.0000 0.0000 0.0000  plane waves:   80999
 k-point  41 :   1.0000 0.0000 0.0000  plane waves:   80999
 k-point  42 :   0.9737 0.0263 0.0000  plane waves:   80943
 k-point  43 :   0.9474 0.0526 0.0000  plane waves:   80953
 k-point  44 :   0.9211 0.0789 0.0000  plane waves:   80931
 k-point  45 :   0.8947 0.1053 0.0000  plane waves:   80897
 k-point  46 :   0.8684 0.1316 0.0000  plane waves:   80855
 k-point  47 :   0.8421 0.1579 0.0000  plane waves:   80841
 k-point  48 :   0.8158 0.1842 0.0000  plane waves:   80849
 k-point  49 :   0.7895 0.2105 0.0000  plane waves:   80851
 k-point  50 :   0.7632 0.2368 0.0000  plane waves:   80838
 k-point  51 :   0.7368 0.2632 0.0000  plane waves:   80874
 k-point  52 :   0.7105 0.2895 0.0000  plane waves:   80874
 k-point  53 :   0.6842 0.3158 0.0000  plane waves:   80872
 k-point  54 :   0.6579 0.3421 0.0000  plane waves:   80904
 k-point  55 :   0.6316 0.3684 0.0000  plane waves:   80884
 k-point  56 :   0.6053 0.3947 0.0000  plane waves:   80880
 k-point  57 :   0.5789 0.4211 0.0000  plane waves:   80846
 k-point  58 :   0.5526 0.4474 0.0000  plane waves:   80854
 k-point  59 :   0.5263 0.4737 0.0000  plane waves:   80862
 k-point  60 :   0.5000 0.5000 0.0000  plane waves:   80804
 k-point  61 :   0.5000 0.5000 0.0000  plane waves:   80804
 k-point  62 :   0.5263 0.5263 0.0000  plane waves:   80862
 k-point  63 :   0.5526 0.5526 0.0000  plane waves:   80854
 k-point  64 :   0.5789 0.5789 0.0000  plane waves:   80846
 k-point  65 :   0.6053 0.6053 0.0000  plane waves:   80880
 k-point  66 :   0.6316 0.6316 0.0000  plane waves:   80884
 k-point  67 :   0.6579 0.6579 0.0000  plane waves:   80904
 k-point  68 :   0.6842 0.6842 0.0000  plane waves:   80872
 k-point  69 :   0.7105 0.7105 0.0000  plane waves:   80874
 k-point  70 :   0.7368 0.7368 0.0000  plane waves:   80874
 k-point  71 :   0.7632 0.7632 0.0000  plane waves:   80838
 k-point  72 :   0.7895 0.7895 0.0000  plane waves:   80851
 k-point  73 :   0.8158 0.8158 0.0000  plane waves:   80849
 k-point  74 :   0.8421 0.8421 0.0000  plane waves:   80841
 k-point  75 :   0.8684 0.8684 0.0000  plane waves:   80855
 k-point  76 :   0.8947 0.8947 0.0000  plane waves:   80897
 k-point  77 :   0.9211 0.9211 0.0000  plane waves:   80931
 k-point  78 :   0.9474 0.9474 0.0000  plane waves:   80953
 k-point  79 :   0.9737 0.9737 0.0000  plane waves:   80943
 k-point  80 :   1.0000 1.0000 0.0000  plane waves:   80999
 k-point  81 :   1.0000 1.0000 0.0000  plane waves:   80999
 k-point  82 :   1.0000 0.9737 0.0000  plane waves:   80947
 k-point  83 :   1.0000 0.9474 0.0000  plane waves:   80947
 k-point  84 :   1.0000 0.9211 0.0000  plane waves:   80957
 k-point  85 :   1.0000 0.8947 0.0000  plane waves:   80939
 k-point  86 :   1.0000 0.8684 0.0000  plane waves:   80919
 k-point  87 :   1.0000 0.8421 0.0000  plane waves:   80919
 k-point  88 :   1.0000 0.8158 0.0000  plane waves:   80921
 k-point  89 :   1.0000 0.7895 0.0000  plane waves:   80897
 k-point  90 :   1.0000 0.7632 0.0000  plane waves:   80897
 k-point  91 :   1.0000 0.7368 0.0000  plane waves:   80841
 k-point  92 :   1.0000 0.7105 0.0000  plane waves:   80865
 k-point  93 :   1.0000 0.6842 0.0000  plane waves:   80865
 k-point  94 :   1.0000 0.6579 0.0000  plane waves:   80839
 k-point  95 :   1.0000 0.6316 0.0000  plane waves:   80843
 k-point  96 :   1.0000 0.6053 0.0000  plane waves:   80801
 k-point  97 :   1.0000 0.5789 0.0000  plane waves:   80799
 k-point  98 :   1.0000 0.5526 0.0000  plane waves:   80786
 k-point  99 :   1.0000 0.5263 0.0000  plane waves:   80804
 k-point 100 :   1.0000 0.5000 0.0000  plane waves:   80810
 k-point 101 :   1.0000 0.5000 0.0000  plane waves:   80810
 k-point 102 :   0.9737 0.5000 0.0000  plane waves:   80794
 k-point 103 :   0.9474 0.5000 0.0000  plane waves:   80814
 k-point 104 :   0.9211 0.5000 0.0000  plane waves:   80836
 k-point 105 :   0.8947 0.5000 0.0000  plane waves:   80830
 k-point 106 :   0.8684 0.5000 0.0000  plane waves:   80828
 k-point 107 :   0.8421 0.5000 0.0000  plane waves:   80860
 k-point 108 :   0.8158 0.5000 0.0000  plane waves:   80866
 k-point 109 :   0.7895 0.5000 0.0000  plane waves:   80896
 k-point 110 :   0.7632 0.5000 0.0000  plane waves:   80912
 k-point 111 :   0.7368 0.5000 0.0000  plane waves:   80892
 k-point 112 :   0.7105 0.5000 0.0000  plane waves:   80882
 k-point 113 :   0.6842 0.5000 0.0000  plane waves:   80898
 k-point 114 :   0.6579 0.5000 0.0000  plane waves:   80884
 k-point 115 :   0.6316 0.5000 0.0000  plane waves:   80900
 k-point 116 :   0.6053 0.5000 0.0000  plane waves:   80864
 k-point 117 :   0.5789 0.5000 0.0000  plane waves:   80846
 k-point 118 :   0.5526 0.5000 0.0000  plane waves:   80856
 k-point 119 :   0.5263 0.5000 0.0000  plane waves:   80852
 k-point 120 :   0.5000 0.5000 0.0000  plane waves:   80804

 maximum and minimum number of plane-waves per node :      6776     6703

 maximum number of plane-waves:     80999
 maximum index in each direction: 
   IXMAX=   26   IYMAX=   26   IZMAX=   27
   IXMIN=  -27   IYMIN=  -27   IZMIN=  -27


 real space projection operators:
  total allocation   :       2838.03 KBytes
  max/ min on nodes  :        251.86        217.50


 parallel 3D FFT for wavefunctions:
    minimum data exchange during FFTs selected (reduces bandwidth)
 parallel 3D FFT for charge:
    minimum data exchange during FFTs selected (reduces bandwidth)


 total amount of memory used by VASP MPI-rank0   979645. kBytes
=======================================================================

   base      :      30000. kBytes
   nonlr-proj:       1875. kBytes
   fftplans  :       8536. kBytes
   grid      :      21934. kBytes
   one-center:        155. kBytes
[...]
   -.107E-04 0.107E-04 0.134E+01   -.309E-06 -.653E-07 -.130E+01   -.439E-18 -.439E-18 -.731E-02   0.558E-04 -.552E-04 -.263E-01
   -.493E+02 -.454E+02 0.371E-01   0.509E+02 0.511E+02 -.389E-01   -.152E+01 -.574E+01 0.262E-02   -.184E-01 0.223E-01 0.188E-03
   -.493E+02 -.454E+02 0.371E-01   0.509E+02 0.511E+02 -.389E-01   -.152E+01 -.575E+01 0.263E-02   -.149E-01 0.876E-02 0.194E-03
   0.493E+02 0.454E+02 0.371E-01   -.509E+02 -.511E+02 -.389E-01   0.152E+01 0.574E+01 0.262E-02   0.184E-01 -.223E-01 0.188E-03
   0.493E+02 0.454E+02 0.371E-01   -.509E+02 -.511E+02 -.389E-01   0.152E+01 0.575E+01 0.263E-02   0.149E-01 -.876E-02 0.194E-03
   0.454E+02 -.493E+02 0.371E-01   -.511E+02 0.509E+02 -.389E-01   0.574E+01 -.152E+01 0.262E-02   -.223E-01 -.184E-01 0.188E-03
   0.454E+02 -.493E+02 0.371E-01   -.511E+02 0.509E+02 -.389E-01   0.575E+01 -.152E+01 0.263E-02   -.876E-02 -.149E-01 0.194E-03
   -.454E+02 0.493E+02 0.371E-01   0.511E+02 -.509E+02 -.389E-01   -.574E+01 0.152E+01 0.262E-02   0.223E-01 0.184E-01 0.188E-03
   -.454E+02 0.493E+02 0.371E-01   0.511E+02 -.509E+02 -.389E-01   -.575E+01 0.152E+01 0.263E-02   0.876E-02 0.149E-01 0.194E-03
   0.498E+02 0.598E+02 0.102E+00   -.546E+02 -.631E+02 -.107E+00   0.479E+01 0.332E+01 0.536E-02   -.146E-01 0.128E-02 0.161E-03
   0.498E+02 0.598E+02 0.102E+00   -.546E+02 -.631E+02 -.107E+00   0.479E+01 0.331E+01 0.536E-02   -.715E-02 0.183E-02 0.173E-03
   -.498E+02 -.598E+02 0.102E+00   0.546E+02 0.631E+02 -.107E+00   -.479E+01 -.332E+01 0.536E-02   0.146E-01 -.128E-02 0.161E-03
   -.498E+02 -.598E+02 0.102E+00   0.546E+02 0.631E+02 -.107E+00   -.479E+01 -.331E+01 0.536E-02   0.715E-02 -.183E-02 0.173E-03
   -.598E+02 0.498E+02 0.102E+00   0.631E+02 -.546E+02 -.107E+00   -.332E+01 0.479E+01 0.536E-02   -.128E-02 -.146E-01 0.161E-03
   -.598E+02 0.498E+02 0.102E+00   0.631E+02 -.546E+02 -.107E+00   -.331E+01 0.479E+01 0.536E-02   -.183E-02 -.714E-02 0.173E-03
   0.598E+02 -.498E+02 0.102E+00   -.631E+02 0.546E+02 -.107E+00   0.332E+01 -.479E+01 0.536E-02   0.128E-02 0.146E-01 0.161E-03
   0.598E+02 -.498E+02 0.102E+00   -.631E+02 0.546E+02 -.107E+00   0.331E+01 -.479E+01 0.536E-02   0.183E-02 0.715E-02 0.173E-03
   -.534E+02 0.829E+02 -.175E-01   0.580E+02 -.863E+02 0.138E-01   -.605E+01 0.299E+01 0.682E-03   -.101E+00 0.176E+00 0.599E-03
   -.532E+02 0.832E+02 -.174E-01   0.580E+02 -.863E+02 0.138E-01   -.610E+01 0.280E+01 0.665E-03   -.157E+00 0.811E-01 0.570E-03
   0.534E+02 -.829E+02 -.175E-01   -.580E+02 0.863E+02 0.138E-01   0.605E+01 -.299E+01 0.682E-03   0.101E+00 -.176E+00 0.599E-03
   0.532E+02 -.832E+02 -.174E-01   -.580E+02 0.863E+02 0.138E-01   0.610E+01 -.280E+01 0.665E-03   0.157E+00 -.811E-01 0.570E-03
   -.829E+02 -.534E+02 -.175E-01   0.863E+02 0.580E+02 0.138E-01   -.299E+01 -.605E+01 0.682E-03   -.176E+00 -.101E+00 0.599E-03
   -.832E+02 -.532E+02 -.174E-01   0.863E+02 0.580E+02 0.138E-01   -.280E+01 -.610E+01 0.665E-03   -.811E-01 -.157E+00 0.570E-03
   0.829E+02 0.534E+02 -.175E-01   -.863E+02 -.580E+02 0.138E-01   0.299E+01 0.605E+01 0.682E-03   0.176E+00 0.101E+00 0.599E-03
   0.832E+02 0.532E+02 -.174E-01   -.863E+02 -.580E+02 0.138E-01   0.280E+01 0.610E+01 0.665E-03   0.811E-01 0.157E+00 0.570E-03
   -.132E+03 -.112E+03 -.144E-01   0.134E+03 0.115E+03 0.110E-01   -.113E+00 -.333E+01 0.397E-02   -.812E-01 0.511E-01 0.162E-02
   -.132E+03 -.112E+03 -.158E-01   0.134E+03 0.115E+03 0.110E-01   -.146E+00 -.329E+01 0.514E-02   -.392E-01 0.807E-01 0.162E-02
   0.132E+03 0.112E+03 -.144E-01   -.134E+03 -.115E+03 0.110E-01   0.113E+00 0.333E+01 0.397E-02   0.812E-01 -.511E-01 0.162E-02
   0.132E+03 0.112E+03 -.158E-01   -.134E+03 -.115E+03 0.110E-01   0.146E+00 0.329E+01 0.514E-02   0.392E-01 -.807E-01 0.162E-02
   0.112E+03 -.132E+03 -.144E-01   -.115E+03 0.134E+03 0.110E-01   0.333E+01 -.113E+00 0.397E-02   -.511E-01 -.812E-01 0.162E-02
   0.112E+03 -.132E+03 -.158E-01   -.115E+03 0.134E+03 0.110E-01   0.329E+01 -.146E+00 0.514E-02   -.807E-01 -.392E-01 0.162E-02
   -.112E+03 0.132E+03 -.144E-01   0.115E+03 -.134E+03 0.110E-01   -.333E+01 0.113E+00 0.397E-02   0.511E-01 0.812E-01 0.162E-02
   -.112E+03 0.132E+03 -.158E-01   0.115E+03 -.134E+03 0.110E-01   -.329E+01 0.146E+00 0.514E-02   0.807E-01 0.392E-01 0.162E-02
   0.699E+02 0.939E+02 -.186E+00   -.702E+02 -.960E+02 0.186E+00   0.595E+00 0.113E+01 -.839E-02   0.201E-01 0.355E-01 0.155E-02
   0.700E+02 0.943E+02 -.186E+00   -.702E+02 -.960E+02 0.186E+00   0.560E+00 0.967E+00 -.854E-02   -.306E-01 -.554E-01 0.151E-02
   -.699E+02 -.939E+02 -.186E+00   0.702E+02 0.960E+02 0.186E+00   -.595E+00 -.113E+01 -.839E-02   -.201E-01 -.355E-01 0.155E-02
   -.700E+02 -.943E+02 -.186E+00   0.702E+02 0.960E+02 0.186E+00   -.560E+00 -.967E+00 -.854E-02   0.306E-01 0.554E-01 0.151E-02
   -.939E+02 0.699E+02 -.186E+00   0.960E+02 -.702E+02 0.186E+00   -.113E+01 0.595E+00 -.839E-02   -.355E-01 0.201E-01 0.155E-02
   -.943E+02 0.700E+02 -.186E+00   0.960E+02 -.702E+02 0.186E+00   -.967E+00 0.560E+00 -.854E-02   0.554E-01 -.307E-01 0.151E-02
   0.939E+02 -.699E+02 -.186E+00   -.960E+02 0.702E+02 0.186E+00   0.113E+01 -.595E+00 -.839E-02   0.355E-01 -.201E-01 0.155E-02
   0.943E+02 -.700E+02 -.186E+00   -.960E+02 0.702E+02 0.186E+00   0.967E+00 -.560E+00 -.854E-02   -.554E-01 0.306E-01 0.151E-02
   0.129E+03 0.150E+03 0.211E+00   -.131E+03 -.151E+03 -.216E+00   0.181E+01 0.102E+01 0.849E-02   -.341E-01 0.526E-01 0.122E-02
   0.129E+03 0.151E+03 0.212E+00   -.131E+03 -.151E+03 -.216E+00   0.182E+01 0.864E+00 0.748E-02   -.543E-01 -.806E-02 0.118E-02
   -.129E+03 -.150E+03 0.211E+00   0.131E+03 0.151E+03 -.216E+00   -.181E+01 -.102E+01 0.849E-02   0.341E-01 -.526E-01 0.122E-02
   -.129E+03 -.151E+03 0.212E+00   0.131E+03 0.151E+03 -.216E+00   -.182E+01 -.864E+00 0.748E-02   0.543E-01 0.806E-02 0.118E-02
   -.150E+03 0.129E+03 0.211E+00   0.151E+03 -.131E+03 -.216E+00   -.102E+01 0.181E+01 0.849E-02   -.526E-01 -.341E-01 0.122E-02
   -.151E+03 0.129E+03 0.212E+00   0.151E+03 -.131E+03 -.216E+00   -.864E+00 0.182E+01 0.748E-02   0.807E-02 -.543E-01 0.118E-02
   0.150E+03 -.129E+03 0.211E+00   -.151E+03 0.131E+03 -.216E+00   0.102E+01 -.181E+01 0.849E-02   0.526E-01 0.341E-01 0.122E-02
   0.151E+03 -.129E+03 0.212E+00   -.151E+03 0.131E+03 -.216E+00   0.864E+00 -.182E+01 0.748E-02   -.806E-02 0.543E-01 0.118E-02
   -.289E+01 0.208E+03 -.437E+00   -.295E+02 -.201E+03 0.476E+00   0.342E+02 -.973E+01 -.326E-01   -.229E+00 0.419E+00 -.739E-02
   -.274E+01 0.208E+03 -.437E+00   -.295E+02 -.201E+03 0.476E+00   0.340E+02 -.981E+01 -.328E-01   -.277E+00 0.369E+00 -.740E-02
   0.289E+01 -.208E+03 -.437E+00   0.295E+02 0.201E+03 0.476E+00   -.342E+02 0.973E+01 -.326E-01   0.229E+00 -.419E+00 -.739E-02
   0.274E+01 -.208E+03 -.437E+00   0.295E+02 0.201E+03 0.476E+00   -.340E+02 0.981E+01 -.328E-01   0.277E+00 -.369E+00 -.740E-02
   -.208E+03 -.289E+01 -.437E+00   0.201E+03 -.295E+02 0.476E+00   0.973E+01 0.342E+02 -.326E-01   -.419E+00 -.229E+00 -.739E-02
   -.208E+03 -.274E+01 -.437E+00   0.201E+03 -.295E+02 0.476E+00   0.981E+01 0.340E+02 -.328E-01   -.369E+00 -.277E+00 -.740E-02
   0.208E+03 0.289E+01 -.437E+00   -.201E+03 0.295E+02 0.476E+00   -.973E+01 -.342E+02 -.326E-01   0.419E+00 0.229E+00 -.739E-02
   0.208E+03 0.274E+01 -.437E+00   -.201E+03 0.295E+02 0.476E+00   -.981E+01 -.340E+02 -.328E-01   0.369E+00 0.277E+00 -.740E-02
 -----------------------------------------------------------------------------------------------
   -.429E-03 0.430E-03 0.230E+00   -.114E-12 -.462E-13 -.555E-16   -.178E-14 0.142E-13 -.174E+00   0.214E-03 -.214E-03 -.695E-01
 
 
 POSITION                                       TOTAL-FORCE (eV/Angst)
 -----------------------------------------------------------------------------------
      0.00000      0.00000      7.49958         0.000000      0.000000      0.006109
      7.28580      7.28580      7.49958         0.000000      0.000000      0.006109
      3.53236     13.73278      7.50009        -0.012759     -0.028106      0.001276
     10.81815      6.44699      7.50009        -0.016193     -0.009112      0.001262
     11.03923      0.83881      7.50009         0.012759      0.028106      0.001276
      3.75344      8.12461      7.50009         0.016193      0.009112      0.001262
      8.12461     10.81815      7.50009         0.028106     -0.012759      0.001276
      0.83881      3.53236      7.50009         0.009112     -0.016193      0.001262
      6.44699      3.75344      7.50009        -0.028106      0.012759      0.001276
     13.73278     11.03923      7.50009        -0.009112      0.016193      0.001262
      8.29452      2.83998      7.49884         0.000287      0.013687      0.000703
      1.00872     10.12577      7.49884        -0.008648      0.000409      0.000699
      6.27707     11.73161      7.49884        -0.000287     -0.013687      0.000703
     13.56287      4.44582      7.49884         0.008648     -0.000409      0.000699
      4.44582      1.00872      7.49884        -0.013687      0.000287      0.000703
     11.73161      8.29452      7.49884        -0.000409     -0.008648      0.000699
     10.12577     13.56287      7.49884         0.013687     -0.000287      0.000703
      2.83998      6.27707      7.49884         0.000409      0.008648      0.000699
      9.20076      4.94391      7.50063        -1.573800     -0.212274     -0.002187
      1.91497     12.22971      7.50063        -1.509293     -0.194204     -0.002117
      5.37083      9.62768      7.50063         1.573800      0.212274     -0.002187
     12.65662      2.34189      7.50063         1.509293      0.194204     -0.002117
      2.34189      1.91497      7.50063         0.212274     -1.573800     -0.002187
      9.62768      9.20076      7.50063         0.194204     -1.509293     -0.002117
     12.22971     12.65662      7.50063        -0.212274      1.573800     -0.002187
      4.94391      5.37083      7.50063        -0.194204      1.509293     -0.002117
      3.23808     12.69231      7.50056         1.390060     -0.394450      0.002430
     10.52388      5.40651      7.50056         1.365599     -0.337193      0.002216
     11.33351      1.87928      7.50056        -1.390060      0.394450      0.002430
      4.04771      9.16508      7.50056        -1.365599      0.337193      0.002216
      9.16508     10.52388      7.50056         0.394450      1.390060      0.002430
      1.87929      3.23808      7.50056         0.337193      1.365599      0.002216
      5.40651      4.04771      7.50056        -0.394450     -1.390060      0.002430
     12.69231     11.33351      7.50056        -0.337193     -1.365599      0.002216
     10.49583      3.03752      7.50086         0.356511     -0.883953     -0.007490
      3.21003     10.32332      7.50086         0.335275     -0.815773     -0.007523
      4.07576     11.53407      7.50086        -0.356511      0.883953     -0.007490
     11.36156      4.24827      7.50086        -0.335275      0.815773     -0.007523
      4.24827      3.21003      7.50086         0.883953      0.356511     -0.007490
     11.53407     10.49583      7.50086         0.815773      0.335275     -0.007523
     10.32332     11.36156      7.50086        -0.883953     -0.356511     -0.007490
      3.03752      4.07576      7.50086        -0.815773     -0.335275     -0.007523
      9.19350      3.44972      7.49981        -0.367917      0.380479      0.004048
      1.90770     10.73552      7.49981        -0.349233      0.413296      0.004241
      5.37809     11.12187      7.49981         0.367917     -0.380479      0.004048
     12.66389      3.83608      7.49981         0.349233     -0.413296      0.004241
      3.83608      1.90770      7.49981        -0.380479     -0.367917      0.004048
     11.12187      9.19350      7.49981        -0.413296     -0.349233      0.004241
     10.73552     12.66389      7.49981         0.380479      0.367917      0.004048
      3.44972      5.37809      7.49981         0.413296      0.349233      0.004241
      8.09968      5.64269      7.50116         1.577158     -2.645518     -0.000259
      0.81389     12.92849      7.50116         1.531659     -2.749880     -0.000353
      6.47191      8.92890      7.50116        -1.577158      2.645518     -0.000259
     13.75770      1.64310      7.50116        -1.531659      2.749880     -0.000353
      1.64310      0.81389      7.50116         2.645518      1.577158     -0.000259
      8.92890      8.09968      7.50116         2.749880      1.531659     -0.000353
     12.92849     13.75770      7.50116        -2.645518     -1.577158     -0.000259
      5.64269      6.47191      7.50116        -2.749880     -1.531659     -0.000353
 -----------------------------------------------------------------------------------
    total drift:                               -0.000215      0.000215     -0.013865


--------------------------------------------------------------------------------------------------------



  FREE ENERGIE OF THE ION-ELECTRON SYSTEM (eV)
  ---------------------------------------------------
  free  energy   TOTEN  =      -409.68028441 eV

  energy  without entropy=     -409.71482406  energy(sigma->0) =     -409.69179763
 


--------------------------------------------------------------------------------------------------------


    POTLOK:  cpu time      0.1271: real time      0.1271


--------------------------------------------------------------------------------------------------------


     LOOP+:  cpu time   1277.2404: real time   1278.3001
    4ORBIT:  cpu time      0.0000: real time      0.0000



 total charge

# of ion       s       p       d       tot
------------------------------------------
    1        0.307   6.356   4.204  10.866
    2        0.307   6.356   4.204  10.866
    3        0.641   0.050   0.000   0.690
    4        0.640   0.050   0.000   0.690
    5        0.641   0.050   0.000   0.690
    6        0.640   0.050   0.000   0.690
    7        0.641   0.050   0.000   0.690
    8        0.640   0.050   0.000   0.690
    9        0.641   0.050   0.000   0.690
   10        0.640   0.050   0.000   0.690
   11        0.641   0.047   0.000   0.688
   12        0.641   0.047   0.000   0.689
   13        0.641   0.047   0.000   0.688
   14        0.641   0.047   0.000   0.689
   15        0.641   0.047   0.000   0.688
   16        0.641   0.047   0.000   0.689
   17        0.641   0.047   0.000   0.688
   18        0.641   0.047   0.000   0.689
   19        0.865   1.686   0.000   2.551
   20        0.864   1.686   0.000   2.551
   21        0.865   1.686   0.000   2.551
   22        0.864   1.686   0.000   2.551
   23        0.865   1.686   0.000   2.551
   24        0.864   1.686   0.000   2.551
   25        0.865   1.686   0.000   2.551
   26        0.864   1.686   0.000   2.551
   27        0.863   1.776   0.000   2.639
   28        0.864   1.771   0.000   2.635
   29        0.863   1.776   0.000   2.639
   30        0.864   1.771   0.000   2.635
   31        0.863   1.776   0.000   2.639
   32        0.864   1.771   0.000   2.635
   33        0.863   1.776   0.000   2.639
   34        0.864   1.771   0.000   2.635
   35        0.877   1.761   0.000   2.638
   36        0.877   1.763   0.000   2.640
   37        0.877   1.761   0.000   2.638
   38        0.877   1.763   0.000   2.640
   39        0.877   1.761   0.000   2.638
   40        0.877   1.763   0.000   2.640
   41        0.877   1.761   0.000   2.638
   42        0.877   1.763   0.000   2.640
   43        0.866   1.752   0.000   2.618
   44        0.867   1.747   0.000   2.614
   45        0.866   1.752   0.000   2.618
   46        0.867   1.747   0.000   2.614
   47        0.866   1.752   0.000   2.618
   48        0.867   1.747   0.000   2.614
   49        0.866   1.752   0.000   2.618
   50        0.867   1.747   0.000   2.614
   51        1.565   3.591   0.000   5.156
   52        1.564   3.595   0.000   5.159
   53        1.565   3.591   0.000   5.156
   54        1.564   3.595   0.000   5.159
   55        1.565   3.591   0.000   5.156
   56        1.564   3.595   0.000   5.159
   57        1.565   3.591   0.000   5.156
   58        1.564   3.595   0.000   5.159
--------------------------------------------------
tot         51.155  98.003   8.408 157.566



 magnetization (x)

# of ion       s       p       d       tot
------------------------------------------
    1        0.065   0.026   3.175   3.266
    2       -0.065  -0.026  -3.175  -3.266
    3       -0.005   0.003   0.000  -0.002
    4       -0.006   0.003   0.000  -0.003
    5       -0.005   0.003   0.000  -0.002
    6       -0.006   0.003   0.000  -0.003
    7        0.005  -0.003   0.000   0.002
    8        0.006  -0.003   0.000   0.003
    9        0.005  -0.003   0.000   0.002
   10        0.006  -0.003   0.000   0.003
   11       -0.004   0.002   0.000  -0.002
   12       -0.003   0.002   0.000  -0.001
   13       -0.004   0.002   0.000  -0.002
   14       -0.003   0.002   0.000  -0.001
   15        0.004  -0.002   0.000   0.002
   16        0.003  -0.002   0.000   0.001
   17        0.004  -0.002   0.000   0.002
   18        0.003  -0.002   0.000   0.001
   19       -0.005  -0.029   0.000  -0.034
   20       -0.001   0.001   0.000  -0.000
   21       -0.005  -0.029   0.000  -0.034
   22       -0.001   0.001   0.000  -0.000
   23        0.005   0.029   0.000   0.034
   24        0.001  -0.001   0.000   0.000
   25        0.005   0.029   0.000   0.034
   26        0.001  -0.001   0.000   0.000
   27        0.009   0.155   0.000   0.164
   28        0.009   0.167   0.000   0.176
   29        0.009   0.155   0.000   0.164
   30        0.009   0.167   0.000   0.176
   31       -0.009  -0.155   0.000  -0.164
   32       -0.009  -0.167   0.000  -0.176
   33       -0.009  -0.155   0.000  -0.164
   34       -0.009  -0.167   0.000  -0.176
   35       -0.003  -0.026   0.000  -0.029
   36       -0.003  -0.024   0.000  -0.027
   37       -0.003  -0.026   0.000  -0.029
   38       -0.003  -0.024   0.000  -0.027
   39        0.003   0.026   0.000   0.029
   40        0.003   0.024   0.000   0.027
   41        0.003   0.026   0.000   0.029
   42        0.003   0.024   0.000   0.027
   43        0.007   0.124   0.000   0.132
   44        0.006   0.102   0.000   0.107
   45        0.007   0.124   0.000   0.132
   46        0.006   0.102   0.000   0.107
   47       -0.007  -0.124   0.000  -0.132
   48       -0.006  -0.102   0.000  -0.107
   49       -0.007  -0.124   0.000  -0.132
   50       -0.006  -0.102   0.000  -0.107
   51        0.003   0.060   0.000   0.063
   52       -0.003  -0.040   0.000  -0.043
   53        0.003   0.060   0.000   0.063
   54       -0.003  -0.040   0.000  -0.043
   55       -0.003  -0.060   0.000  -0.063
   56        0.003   0.040   0.000   0.043
   57       -0.003  -0.060   0.000  -0.063
   58        0.003   0.040   0.000   0.043
--------------------------------------------------
tot         -0.000   0.000   0.000   0.000
 

 total amount of memory used by VASP MPI-rank0   979645. kBytes
=======================================================================

   base      :      30000. kBytes
   nonlr-proj:       1875. kBytes
   fftplans  :       8536. kBytes
   grid      :      21934. kBytes
   one-center:        155. kBytes
   wavefun   :     917145. kBytes
 
  
  
 General timing and accounting informations for this job:
 ========================================================
  
                  Total CPU time used (sec):     1411.746
                            User time (sec):     1403.331
                          System time (sec):        8.414
                         Elapsed time (sec):     1414.480
  
                   Maximum memory used (kb):     1320188.
                   Average memory used (kb):          N/A
  
                          Minor page faults:       149741
                          Major page faults:            0
                 Voluntary context switches:        42236
