 vasp.6.3.2 27Jun22 (build Aug 02 2025 14:55:03) complex                        
  
 executed on             LinuxIFC date 2025.11.27  20:19:37
 running on   48 total cores
 distrk:  each k-point on   48 cores,    1 groups
 distr:  one band on NCORE=  12 cores,    4 groups


--------------------------------------------------------------------------------------------------------


 INCAR:
   PREC = Normal
   ENCUT = 500
   IBRION = -1
   ISPIN = 2
   MAGMOM = 5 -5 4*1 4*-1 4*1 4*-1 4*1 4*-1 4*1 4*-1 4*1 4*-1 4*1 4*-1 4*1 4*-1 4*1 4*-1 4*1 4*-1 4*1 4*-1 4*1 4*-1 4*1 4*-1 4*1 4*-1 4*1 4*-1 4*1 4*-1 4*1 4*-1 4*1 4*-1 4*1 4*-1 4*1 4*-1 4*1 4*-1 4*1 4*-1 4*1 4*-1 4*1 4*-1 4*1 4*-1 4*1 4*-1 4*1 4*-1 4*1 4*-1 4*1 4*-1 4*1 4*-1 4*1 4*-1 4*1 4*-1 4*1 4*-1 4*1 4*-1 4*1 4*-1 4*1 4*-1 4*1 4*-1 4*1 4*-1 4*1 4*-1 4*1 4*-1
   NSW = 0
   NELM = 200
   ISIF = 2
   EDIFF = 1E-5
   EDIFFG = -0.01
   ALGO = Fast
   ISTART = 1
   ICHARG = 11
   LREAL = Auto
   LWAVE = .F.
   LCHARG = .F.
   LVTOT = .T.
   NPAR = 4
   AMIX = 0.2
   BMIX = 0.0001
   AMIX_MAG = 0.8
   BMIX_MAG = 0.0001
   LDAU = .TRUE.
   LDAUTYPE = 2
   LDAUL = 2 -1 -1 -1 -1 -1
   LDAUU = 3.0 0 0 0 0 0
   LDAUJ = 1.0 0 0 0 0 0
   LMAXMIX = 4
   LORBIT = 11

 POTCAR:    PAW_PBE Cr_pv 02Aug2007               
 POTCAR:    PAW_PBE H 15Jun2001                   
 POTCAR:    PAW_PBE C 08Apr2002                   
 POTCAR:    PAW_PBE N 08Apr2002                   
 POTCAR:    PAW_PBE O 08Apr2002                   
 WARNING: For LVTOT=.TRUE., VASP.5.x writes the TOTAL local potential to the
     file LOCPOT. If you want only the Hartree contributions, use LVHAR=.TRUE.
     instead. 

 POTCAR:    PAW_PBE Cr_pv 02Aug2007               
   SHA256 =  c9a7df34d3cdbacf1090e328ef39c0b420964e11c23f63548d1ac9dd218cdba0 Cr_pv/POTCAR          
   COPYR  = (c) Copyright 02Aug2007 Georg Kresse                                                    
   COPYR  = This file is part of the software VASP. Any use, copying, and all other rights are regul
   COPYR  = If you do not have a valid VASP license, you may not use, copy or distribute this file. 
   VRHFIN =Cr : p6d5s1                                                                              
   LEXCH  = PE                                                                                      
   EATOM  =  1647.9177 eV,  121.1185 Ry                                                             
                                                                                                    
   TITEL  = PAW_PBE Cr_pv 02Aug2007                                                                 
   LULTRA =        F    use ultrasoft PP ?                                                          
   IUNSCR =        1    unscreen: 0-lin 1-nonlin 2-no                                               
   RPACOR =    2.080    partial core radius                                                         
   POMASS =   51.996; ZVAL   =   12.000    mass and valenz                                          
   RCORE  =    2.300    outmost cutoff radius                                                       
   RWIGS  =    2.500; RWIGS  =    1.323    wigner-seitz radius (au A)                               
   ENMAX  =  265.681; ENMIN  =  199.261 eV                                                          
   ICORE  =        3    local potential                                                             
   LCOR   =        T    correct aug charges                                                         
   LPAW   =        T    paw PP                                                                      
   EAUG   =  519.424                                                                                
   DEXC   =    0.000                                                                                
   RMAX   =    2.356    core radius for proj-oper                                                   
   RAUG   =    1.300    factor for augmentation sphere                                              
   RDEP   =    2.447    radius for radial grids                                                     
   RDEPT  =    1.882    core radius for aug-charge                                                  
                                                                                                    
   Atomic configuration                                                                             
    8 entries                                                                                       
     n  l   j            E        occ.                                                              
     1  0  0.50     -5880.4963   2.0000                                                             
     2  0  0.50      -667.0865   2.0000                                                             
     2  1  1.50      -560.6250   6.0000                                                             
     3  0  0.50       -73.9860   2.0000                                                             
     3  1  1.50       -45.4378   6.0000                                                             
     3  2  2.50        -2.9137   5.0000                                                             
     4  0  0.50        -4.0071   1.0000                                                             
     4  3  2.50        -1.3606   0.0000                                                             
   Description                                                                                      
     l       E           TYP  RCUT    TYP  RCUT                                                     
     1    -45.4377911     23  2.000                                                                 
     1      1.3605826     23  2.000                                                                 
     2     -2.9136672     23  2.300                                                                 
     2     -4.2742498     23  2.300                                                                 
     0     -4.0071320     23  2.300                                                                 
     0      9.4498803     23  2.300                                                                 
     3      2.7211652     23  2.300                                                                 
  local pseudopotential read in
  partial core-charges read in
  partial kinetic energy density read in
  atomic valenz-charges read in
  non local Contribution for L=           1  read in
    real space projection operators read in
  non local Contribution for L=           1  read in
    real space projection operators read in
  non local Contribution for L=           2  read in
    real space projection operators read in
  non local Contribution for L=           2  read in
    real space projection operators read in
  non local Contribution for L=           0  read in
    real space projection operators read in
  non local Contribution for L=           0  read in
    real space projection operators read in
    PAW grid and wavefunctions read in
 
   number of l-projection  operators is LMAX  =           6
   number of lm-projection operators is LMMAX =          18
 
 POTCAR:    PAW_PBE H 15Jun2001                   
   SHA256 =  030f79b5d3ab3cf0e668861823c8fb652ff669f3e15e46930bd03bfd63a607b6 H/POTCAR              
   COPYR  = (c) Copyright 15Jun2001 Georg Kresse                                                    
   COPYR  = This file is part of the software VASP. Any use, copying, and all other rights are regul
   COPYR  = If you do not have a valid VASP license, you may not use, copy or distribute this file. 
   VRHFIN =H: ultrasoft test                                                                        
   LEXCH  = PE                                                                                      
   EATOM  =    12.4884 eV,    0.9179 Ry                                                             
                                                                                                    
   TITEL  = PAW_PBE H 15Jun2001                                                                     
   LULTRA =        F    use ultrasoft PP ?                                                          
   IUNSCR =        0    unscreen: 0-lin 1-nonlin 2-no                                               
   RPACOR =    0.000    partial core radius                                                         
   POMASS =    1.000; ZVAL   =    1.000    mass and valenz                                          
   RCORE  =    1.100    outmost cutoff radius                                                       
   RWIGS  =    0.700; RWIGS  =    0.370    wigner-seitz radius (au A)                               
   ENMAX  =  250.000; ENMIN  =  200.000 eV                                                          
   RCLOC  =    0.701    cutoff for local pot                                                        
   LCOR   =        T    correct aug charges                                                         
   LPAW   =        T    paw PP                                                                      
   EAUG   =  400.000                                                                                
   RMAX   =    1.123    core radius for proj-oper                                                   
   RAUG   =    1.200    factor for augmentation sphere                                              
   RDEP   =    1.112    radius for radial grids                                                     
   RDEPT  =    0.926    core radius for aug-charge                                                  
                                                                                                    
   Atomic configuration                                                                             
    2 entries                                                                                       
     n  l   j            E        occ.                                                              
     1  0  0.50        -6.4927   1.0000                                                             
     2  1  0.50        -3.4015   0.0000                                                             
   Description                                                                                      
     l       E           TYP  RCUT    TYP  RCUT                                                     
     0     -6.4927494     23  1.100                                                                 
     0      6.8029130     23  1.100                                                                 
     1     -4.0817478     23  1.100                                                                 
  local pseudopotential read in
  atomic valenz-charges read in
  non local Contribution for L=           0  read in
    real space projection operators read in
  non local Contribution for L=           0  read in
    real space projection operators read in
  non local Contribution for L=           1  read in
    real space projection operators read in
    PAW grid and wavefunctions read in
 
   number of l-projection  operators is LMAX  =           3
   number of lm-projection operators is LMMAX =           5
 
 POTCAR:    PAW_PBE C 08Apr2002                   
   SHA256 =  253f7b50bb8d59471dbedb8285d89021f4a42ed1a2c5d38a03a736e69125dd95 C/POTCAR              
   COPYR  = (c) Copyright 08Apr2002 Georg Kresse                                                    
   COPYR  = This file is part of the software VASP. Any use, copying, and all other rights are regul
   COPYR  = If you do not have a valid VASP license, you may not use, copy or distribute this file. 
   VRHFIN =C: s2p2                                                                                  
   LEXCH  = PE                                                                                      
   EATOM  =   147.1560 eV,   10.8157 Ry                                                             
                                                                                                    
   TITEL  = PAW_PBE C 08Apr2002                                                                     
   LULTRA =        F    use ultrasoft PP ?                                                          
   IUNSCR =        1    unscreen: 0-lin 1-nonlin 2-no                                               
   RPACOR =    1.200    partial core radius                                                         
   POMASS =   12.011; ZVAL   =    4.000    mass and valenz                                          
   RCORE  =    1.500    outmost cutoff radius                                                       
   RWIGS  =    1.630; RWIGS  =    0.863    wigner-seitz radius (au A)                               
   ENMAX  =  400.000; ENMIN  =  300.000 eV                                                          
   ICORE  =        2    local potential                                                             
   LCOR   =        T    correct aug charges                                                         
   LPAW   =        T    paw PP                                                                      
   EAUG   =  644.873                                                                                
   DEXC   =    0.000                                                                                
   RMAX   =    1.529    core radius for proj-oper                                                   
   RAUG   =    1.300    factor for augmentation sphere                                              
   RDEP   =    1.501    radius for radial grids                                                     
   RDEPT  =    1.300    core radius for aug-charge                                                  
                                                                                                    
   Atomic configuration                                                                             
    4 entries                                                                                       
     n  l   j            E        occ.                                                              
     1  0  0.50      -273.3789   2.0000                                                             
     2  0  0.50       -13.7508   2.0000                                                             
     2  1  0.50        -5.2854   2.0000                                                             
     3  2  1.50        -5.4423   0.0000                                                             
   Description                                                                                      
     l       E           TYP  RCUT    TYP  RCUT                                                     
     0    -13.7508458     23  1.200                                                                 
     0     -8.2022199     23  1.200                                                                 
     1     -5.2854383     23  1.500                                                                 
     1     34.0145650     23  1.500                                                                 
     2     -5.4423304      7  1.500                                                                 
  local pseudopotential read in
  partial core-charges read in
  partial kinetic energy density read in
  atomic valenz-charges read in
  non local Contribution for L=           0  read in
    real space projection operators read in
  non local Contribution for L=           0  read in
    real space projection operators read in
  non local Contribution for L=           1  read in
    real space projection operators read in
  non local Contribution for L=           1  read in
    real space projection operators read in
    PAW grid and wavefunctions read in
 
   number of l-projection  operators is LMAX  =           4
   number of lm-projection operators is LMMAX =           8
 
 POTCAR:    PAW_PBE N 08Apr2002                   
   SHA256 =  e053789ff3a61a86a1b75d8a110fcc91f86041011e7b0817c7c99e4e8a6349d7 N/POTCAR              
   COPYR  = (c) Copyright 08Apr2002 Georg Kresse                                                    
   COPYR  = This file is part of the software VASP. Any use, copying, and all other rights are regul
   COPYR  = If you do not have a valid VASP license, you may not use, copy or distribute this file. 
   VRHFIN =N: s2p3                                                                                  
   LEXCH  = PE                                                                                      
   EATOM  =   264.5486 eV,   19.4438 Ry                                                             
                                                                                                    
   TITEL  = PAW_PBE N 08Apr2002                                                                     
   LULTRA =        F    use ultrasoft PP ?                                                          
   IUNSCR =        1    unscreen: 0-lin 1-nonlin 2-no                                               
   RPACOR =    1.200    partial core radius                                                         
   POMASS =   14.001; ZVAL   =    5.000    mass and valenz                                          
   RCORE  =    1.500    outmost cutoff radius                                                       
   RWIGS  =    1.400; RWIGS  =    0.741    wigner-seitz radius (au A)                               
   ENMAX  =  400.000; ENMIN  =  300.000 eV                                                          
   ICORE  =        2    local potential                                                             
   LCOR   =        T    correct aug charges                                                         
   LPAW   =        T    paw PP                                                                      
   EAUG   =  627.112                                                                                
   DEXC   =    0.000                                                                                
   RMAX   =    1.529    core radius for proj-oper                                                   
   RAUG   =    1.300    factor for augmentation sphere                                              
   RDEP   =    1.514    radius for radial grids                                                     
   RDEPT  =    1.338    core radius for aug-charge                                                  
                                                                                                    
   Atomic configuration                                                                             
    4 entries                                                                                       
     n  l   j            E        occ.                                                              
     1  0  0.50      -384.7179   2.0000                                                             
     2  0  0.50       -18.5828   2.0000                                                             
     2  1  0.50        -7.0898   3.0000                                                             
     3  2  1.50        -6.8029   0.0000                                                             
   Description                                                                                      
     l       E           TYP  RCUT    TYP  RCUT                                                     
     0    -18.5828119     23  1.200                                                                 
     0    -13.5018863     23  1.200                                                                 
     1     -7.0897853     23  1.500                                                                 
     1      9.5240782     23  1.500                                                                 
     2     -6.8029130      7  1.500                                                                 
  local pseudopotential read in
  partial core-charges read in
  partial kinetic energy density read in
  atomic valenz-charges read in
  non local Contribution for L=           0  read in
    real space projection operators read in
  non local Contribution for L=           0  read in
    real space projection operators read in
  non local Contribution for L=           1  read in
    real space projection operators read in
  non local Contribution for L=           1  read in
    real space projection operators read in
    PAW grid and wavefunctions read in
 
   number of l-projection  operators is LMAX  =           4
   number of lm-projection operators is LMMAX =           8
 
 POTCAR:    PAW_PBE O 08Apr2002                   
   SHA256 =  818f92134a0a090dccd8ba1447fa70422a3b330e708bb4f08108d8ae51209ddf O/POTCAR              
   COPYR  = (c) Copyright 08Apr2002 Georg Kresse                                                    
   COPYR  = This file is part of the software VASP. Any use, copying, and all other rights are regul
   COPYR  = If you do not have a valid VASP license, you may not use, copy or distribute this file. 
   VRHFIN =O: s2p4                                                                                  
   LEXCH  = PE                                                                                      
   EATOM  =   432.3788 eV,   31.7789 Ry                                                             
                                                                                                    
   TITEL  = PAW_PBE O 08Apr2002                                                                     
   LULTRA =        F    use ultrasoft PP ?                                                          
   IUNSCR =        1    unscreen: 0-lin 1-nonlin 2-no                                               
   RPACOR =    1.200    partial core radius                                                         
   POMASS =   16.000; ZVAL   =    6.000    mass and valenz                                          
   RCORE  =    1.520    outmost cutoff radius                                                       
   RWIGS  =    1.550; RWIGS  =    0.820    wigner-seitz radius (au A)                               
   ENMAX  =  400.000; ENMIN  =  300.000 eV                                                          
   ICORE  =        2    local potential                                                             
   LCOR   =        T    correct aug charges                                                         
   LPAW   =        T    paw PP                                                                      
   EAUG   =  605.392                                                                                
   DEXC   =    0.000                                                                                
   RMAX   =    1.553    core radius for proj-oper                                                   
   RAUG   =    1.300    factor for augmentation sphere                                              
   RDEP   =    1.550    radius for radial grids                                                     
   RDEPT  =    1.329    core radius for aug-charge                                                  
                                                                                                    
   Atomic configuration                                                                             
    4 entries                                                                                       
     n  l   j            E        occ.                                                              
     1  0  0.50      -514.6923   2.0000                                                             
     2  0  0.50       -23.9615   2.0000                                                             
     2  1  0.50        -9.0305   4.0000                                                             
     3  2  1.50        -9.5241   0.0000                                                             
   Description                                                                                      
     l       E           TYP  RCUT    TYP  RCUT                                                     
     0    -23.9615318     23  1.200                                                                 
     0     -9.5240782     23  1.200                                                                 
     1     -9.0304911     23  1.520                                                                 
     1      8.1634956     23  1.520                                                                 
     2     -9.5240782      7  1.500                                                                 
  local pseudopotential read in
  partial core-charges read in
  partial kinetic energy density read in
  kinetic energy density of atom read in
  atomic valenz-charges read in
  non local Contribution for L=           0  read in
    real space projection operators read in
  non local Contribution for L=           0  read in
    real space projection operators read in
  non local Contribution for L=           1  read in
    real space projection operators read in
  non local Contribution for L=           1  read in
    real space projection operators read in
    PAW grid and wavefunctions read in
 
   number of l-projection  operators is LMAX  =           4
   number of lm-projection operators is LMMAX =           8
 
 Optimization of the real space projectors (new method)

 maximal supplied QI-value         = 16.25
 optimisation between [QCUT,QGAM] = [ 11.38, 22.75] = [ 36.24,144.96] Ry 
 Optimized for a Real-space Cutoff    1.31 Angstroem

   l    n(q)    QCUT    max X(q) W(low)/X(q) W(high)/X(q)  e(spline) 
   1      8    11.376     3.262    0.15E-03    0.36E-03    0.86E-07
   1      8    11.376     5.741    0.39E-03    0.84E-03    0.21E-06
   2      8    11.376    60.438    0.39E-03    0.55E-03    0.20E-06
   2      8    11.376    55.380    0.40E-03    0.57E-03    0.20E-06
   0      9    11.376    80.273    0.17E-03    0.16E-03    0.48E-07
   0      9    11.376    36.654    0.15E-03    0.14E-03    0.43E-07
 Optimization of the real space projectors (new method)

 maximal supplied QI-value         = 34.20
 optimisation between [QCUT,QGAM] = [ 11.29, 22.57] = [ 35.68,142.71] Ry 
 Optimized for a Real-space Cutoff    1.16 Angstroem

   l    n(q)    QCUT    max X(q) W(low)/X(q) W(high)/X(q)  e(spline) 
   0      8    11.287    19.460    0.40E-03    0.73E-03    0.16E-06
   0      8    11.287    12.209    0.38E-03    0.70E-03    0.15E-06
   1      7    11.287     4.655    0.22E-03    0.25E-04    0.22E-06
 Optimization of the real space projectors (new method)

 maximal supplied QI-value         = 25.13
 optimisation between [QCUT,QGAM] = [ 11.31, 22.87] = [ 35.82,146.48] Ry 
 Optimized for a Real-space Cutoff    1.00 Angstroem

   l    n(q)    QCUT    max X(q) W(low)/X(q) W(high)/X(q)  e(spline) 
   0      7    11.310   115.676    0.43E-03    0.13E-02    0.19E-06
   0      7    11.310    87.132    0.43E-03    0.13E-02    0.18E-06
   1      6    11.310     4.429    0.42E-03    0.74E-03    0.11E-06
   1      6    11.310     2.733    0.34E-03    0.55E-03    0.92E-07
 Optimization of the real space projectors (new method)

 maximal supplied QI-value         = 25.13
 optimisation between [QCUT,QGAM] = [ 11.31, 22.87] = [ 35.82,146.48] Ry 
 Optimized for a Real-space Cutoff    1.27 Angstroem

   l    n(q)    QCUT    max X(q) W(low)/X(q) W(high)/X(q)  e(spline) 
   0      9    11.310    79.467    0.75E-04    0.16E-03    0.36E-06
   0      9    11.310    66.151    0.74E-04    0.16E-03    0.36E-06
   1      8    11.310    17.416    0.35E-03    0.12E-03    0.95E-06
   1      8    11.310    12.382    0.37E-03    0.13E-03    0.98E-06
 Optimization of the real space projectors (new method)

 maximal supplied QI-value         = 24.76
 optimisation between [QCUT,QGAM] = [ 11.39, 22.77] = [ 36.31,145.25] Ry 
 Optimized for a Real-space Cutoff    1.00 Angstroem

   l    n(q)    QCUT    max X(q) W(low)/X(q) W(high)/X(q)  e(spline) 
   0      7    11.387    20.381    0.39E-03    0.13E-02    0.15E-06
   0      7    11.387    15.268    0.42E-03    0.14E-02    0.17E-06
   1      6    11.387     5.964    0.41E-03    0.11E-02    0.17E-06
   1      6    11.387     5.382    0.39E-03    0.87E-03    0.15E-06
  PAW_PBE Cr_pv 02Aug2007               :
 energy of atom  1       EATOM=-1647.9177
 kinetic energy error for atom=    0.0061 (will be added to EATOM!!)
  PAW_PBE H 15Jun2001                   :
 energy of atom  2       EATOM=  -12.4884
 kinetic energy error for atom=    0.0020 (will be added to EATOM!!)
  PAW_PBE C 08Apr2002                   :
 energy of atom  3       EATOM= -147.1560
 kinetic energy error for atom=    0.0076 (will be added to EATOM!!)
  PAW_PBE N 08Apr2002                   :
 energy of atom  4       EATOM= -264.5486
 kinetic energy error for atom=    0.0138 (will be added to EATOM!!)
  PAW_PBE O 08Apr2002                   :
 energy of atom  5       EATOM= -432.3788
 kinetic energy error for atom=    0.0224 (will be added to EATOM!!)
 
 
 POSCAR: Generated by VASPKIT code
  positions in cartesian coordinates
  No initial velocities read in
 exchange correlation table for  LEXCH =        8
   RHO(1)=    0.500       N(1)  =     2000
   RHO(2)=  100.500       N(2)  =     4000
 


--------------------------------------------------------------------------------------------------------


 ion  position               nearest neighbor table
   1  0.000  0.000  0.577-  77 1.80  80 1.80  82 1.80  75 1.80
   2  0.500  0.500  0.577-  78 1.80  76 1.80  79 1.80  81 1.80
   3  0.211  0.873  0.598-  51 1.10
   4  0.711  0.373  0.598-  52 1.10
   5  0.789  0.127  0.598-  53 1.10
   6  0.289  0.627  0.598-  54 1.10
   7  0.627  0.711  0.598-  55 1.10
   8  0.127  0.211  0.598-  56 1.10
   9  0.373  0.289  0.598-  57 1.10
  10  0.873  0.789  0.598-  58 1.10
  11  0.677  0.238  0.467-  59 1.10
  12  0.177  0.738  0.467-  60 1.10
  13  0.323  0.762  0.467-  61 1.10
  14  0.823  0.262  0.467-  62 1.10
  15  0.262  0.177  0.467-  63 1.10
  16  0.762  0.677  0.467-  64 1.10
  17  0.738  0.823  0.467-  65 1.10
  18  0.238  0.323  0.467-  66 1.10
  19  0.676  0.233  0.584-  59 1.10
  20  0.176  0.733  0.584-  60 1.10
  21  0.324  0.767  0.584-  61 1.10
  22  0.824  0.267  0.584-  62 1.10
  23  0.267  0.176  0.584-  63 1.10
  24  0.767  0.676  0.584-  64 1.10
  25  0.733  0.824  0.584-  65 1.10
  26  0.233  0.324  0.584-  66 1.10
  27  0.227  0.952  0.468-  67 1.02
  28  0.727  0.452  0.468-  68 1.02
  29  0.773  0.048  0.468-  69 1.02
  30  0.273  0.548  0.468-  70 1.02
  31  0.548  0.727  0.468-  71 1.02
  32  0.048  0.227  0.468-  72 1.02
  33  0.452  0.273  0.468-  73 1.02
  34  0.952  0.773  0.468-  74 1.02
  35  0.221  0.875  0.402-  67 1.02
  36  0.721  0.375  0.402-  68 1.02
  37  0.779  0.125  0.402-  69 1.02
  38  0.279  0.625  0.402-  70 1.02
  39  0.625  0.721  0.402-  71 1.02
  40  0.125  0.221  0.402-  72 1.02
  41  0.375  0.279  0.402-  73 1.02
  42  0.875  0.779  0.402-  74 1.02
  43  0.606  0.371  0.517-  83 1.22  76 1.35  52 1.53
  44  0.106  0.871  0.517-  84 1.22  75 1.35  51 1.53
  45  0.394  0.629  0.517-  85 1.22  78 1.35  54 1.53
  46  0.894  0.129  0.517-  86 1.22  77 1.35  53 1.53
  47  0.129  0.106  0.517-  87 1.22  80 1.35  56 1.53
  48  0.629  0.606  0.517-  88 1.22  79 1.35  55 1.53
  49  0.871  0.894  0.517-  89 1.22  82 1.35  58 1.53
  50  0.371  0.394  0.517-  90 1.22  81 1.35  57 1.53
  51  0.193  0.850  0.532-   3 1.10  67 1.47  60 1.53  44 1.53
  52  0.693  0.350  0.532-   4 1.10  68 1.47  59 1.53  43 1.53
  53  0.807  0.150  0.532-   5 1.10  69 1.47  62 1.53  46 1.53
  54  0.307  0.650  0.532-   6 1.10  70 1.47  61 1.53  45 1.53
  55  0.650  0.693  0.532-   7 1.10  71 1.47  64 1.53  48 1.53
  56  0.150  0.193  0.532-   8 1.10  72 1.47  63 1.53  47 1.53
  57  0.350  0.307  0.532-   9 1.10  73 1.47  66 1.53  50 1.53
  58  0.850  0.807  0.532-  10 1.10  74 1.47  65 1.53  49 1.53
  59  0.706  0.261  0.527-  11 1.10  19 1.10  62 1.53  52 1.53
  60  0.206  0.761  0.527-  12 1.10  20 1.10  61 1.53  51 1.53
  61  0.294  0.739  0.527-  13 1.10  21 1.10  60 1.53  54 1.53
  62  0.794  0.239  0.527-  14 1.10  22 1.10  59 1.53  53 1.53
  63  0.239  0.206  0.527-  15 1.10  23 1.10  66 1.53  56 1.53
  64  0.739  0.706  0.527-  16 1.10  24 1.10  65 1.53  55 1.53
  65  0.761  0.794  0.527-  17 1.10  25 1.10  64 1.53  58 1.53
  66  0.261  0.294  0.527-  18 1.10  26 1.10  63 1.53  57 1.53
  67  0.238  0.893  0.465-  35 1.02  27 1.02  51 1.47
  68  0.738  0.393  0.465-  36 1.02  28 1.02  52 1.47
  69  0.762  0.107  0.465-  37 1.02  29 1.02  53 1.47
  70  0.262  0.607  0.465-  38 1.02  30 1.02  54 1.47
  71  0.607  0.738  0.465-  39 1.02  31 1.02  55 1.47
  72  0.107  0.238  0.465-  40 1.02  32 1.02  56 1.47
  73  0.393  0.262  0.465-  41 1.02  33 1.02  57 1.47
  74  0.893  0.762  0.465-  42 1.02  34 1.02  58 1.47
  75  0.085  0.937  0.560-  44 1.35   1 1.80
  76  0.585  0.437  0.560-  43 1.35   2 1.80
  77  0.915  0.063  0.560-  46 1.35   1 1.80
  78  0.415  0.563  0.560-  45 1.35   2 1.80
  79  0.563  0.585  0.560-  48 1.35   2 1.80
  80  0.063  0.085  0.560-  47 1.35   1 1.80
  81  0.437  0.415  0.560-  50 1.35   2 1.80
  82  0.937  0.915  0.560-  49 1.35   1 1.80
  83  0.562  0.336  0.465-  43 1.22
  84  0.062  0.836  0.465-  44 1.22
  85  0.438  0.664  0.465-  45 1.22
  86  0.938  0.164  0.465-  46 1.22
  87  0.164  0.062  0.465-  47 1.22
  88  0.664  0.562  0.465-  48 1.22
  89  0.836  0.938  0.465-  49 1.22
  90  0.336  0.438  0.465-  50 1.22
 
  LATTYP: Found a simple tetragonal cell.
 ALAT       =    16.9336509705
 C/A-ratio  =     0.8858101555
  
  Lattice vectors:
  
 A1 = (  16.9336509705,   0.0000000000,   0.0000000000)
 A2 = (   0.0000000000,  16.9336509705,   0.0000000000)
 A3 = (   0.0000000000,   0.0000000000,  15.0000000000)


Analysis of symmetry for initial positions (statically):
=====================================================================
 Subroutine PRICEL returns following result:
 
  LATTYP: Found a simple tetragonal cell.
 ALAT       =    11.9738994473
 C/A-ratio  =     1.2527247340
  
  Lattice vectors:
  
 A1 = (   8.4668254967,  -8.4668254962,   0.0000000000)
 A2 = (   8.4668254967,   8.4668254743,   0.0000000000)
 A3 = (   0.0000000000,   0.0000000000,  15.0000000000)
 
   2 primitive cells build up your supercell.
 

 Routine SETGRP: Setting up the symmetry group for a 
 simple tetragonal supercell.


 Subroutine GETGRP returns: Found  4 space group operations
 (whereof  4 operations were pure point group operations)
 out of a pool of 16 trial point group operations.


The static configuration has the point symmetry     .


Analysis of symmetry for dynamics (positions and initial velocities):
=====================================================================
 Subroutine PRICEL returns following result:
 
  LATTYP: Found a simple tetragonal cell.
 ALAT       =    11.9738994473
 C/A-ratio  =     1.2527247340
  
  Lattice vectors:
  
 A1 = (   8.4668254967,  -8.4668254962,   0.0000000000)
 A2 = (   8.4668254967,   8.4668254743,   0.0000000000)
 A3 = (   0.0000000000,   0.0000000000,  15.0000000000)
 
   2 primitive cells build up your supercell.
 

 Routine SETGRP: Setting up the symmetry group for a 
 simple tetragonal supercell.


 Subroutine GETGRP returns: Found  4 space group operations
 (whereof  4 operations were pure point group operations)
 out of a pool of 16 trial point group operations.


The dynamic configuration has the point symmetry     .


Analysis of structural, dynamic, and magnetic symmetry:
=====================================================================
 Subroutine PRICEL returns:
 Original cell was already a primitive cell.
 

 Routine SETGRP: Setting up the symmetry group for a 
 simple tetragonal supercell.


 Subroutine GETGRP returns: Found  4 space group operations
 (whereof  2 operations were pure point group operations)
 out of a pool of 16 trial point group operations.


The overall configuration has the point symmetry C_2 .
 The point group associated with its full space group is C_2 .


 Subroutine INISYM returns: Found  4 space group operations
 (whereof  2 operations are pure point group operations),
 and found     1 'primitive' translations


----------------------------------------------------------------------------------------

                                     Primitive cell                                     

  volume of cell :    4301.2280

  direct lattice vectors                    reciprocal lattice vectors
    16.933650971  0.000000000  0.000000000     0.059054010 -0.000000000 -0.000000000
     0.000000000 16.933650971  0.000000000     0.000000000  0.059054010 -0.000000000
     0.000000000  0.000000000 15.000000000     0.000000000  0.000000000  0.066666667

  length of vectors
    16.933650971 16.933650971 15.000000000     0.059054010  0.059054010  0.066666667

  position of ions in fractional coordinates (direct lattice)
     1.000000000  1.000000000  0.577308879
     0.500000001  0.499999999  0.577308879
     0.210943116  0.872917149  0.597805387
     0.710943116  0.372917148  0.597805387
     0.789056885  0.127082850  0.597805387
     0.289056886  0.627082850  0.597805387
     0.627082852  0.710943114  0.597805387
     0.127082851  0.210943115  0.597805387
     0.372917150  0.289056884  0.597805387
     0.872917150  0.789056884  0.597805387
     0.677409178  0.237699546  0.467052861
     0.177409179  0.737699547  0.467052861
     0.322590823  0.762300453  0.467052861
     0.822590823  0.262300452  0.467052861
     0.262300453  0.177409177  0.467052861
     0.762300454  0.677409177  0.467052861
     0.737699548  0.822590821  0.467052861
     0.237699547  0.322590822  0.467052861
     0.675760027  0.232655538  0.583702605
     0.175760027  0.732655539  0.583702605
     0.324239975  0.767344461  0.583702605
     0.824239974  0.267344460  0.583702605
     0.267344461  0.175760026  0.583702605
     0.767344462  0.675760025  0.583702605
     0.732655540  0.824239973  0.583702605
     0.232655539  0.324239973  0.583702605
     0.227358198  0.952441912  0.468412622
     0.727358197  0.452441912  0.468412622
     0.772641803  0.047558086  0.468412622
     0.272641804  0.547558087  0.468412622
     0.547558088  0.727358196  0.468412622
     0.047558088  0.227358197  0.468412622
     0.452441913  0.272641803  0.468412622
     0.952441914  0.772641802  0.468412622
     0.221316262  0.875145382  0.402194613
     0.721316261  0.375145381  0.402194613
     0.778683740  0.124854617  0.402194613
     0.278683740  0.624854617  0.402194613
     0.624854619  0.721316260  0.402194613
     0.124854618  0.221316260  0.402194613
     0.375145383  0.278683739  0.402194613
     0.875145383  0.778683738  0.402194613
     0.605928485  0.370536946  0.516961125
     0.105928485  0.870536947  0.516961125
     0.394071517  0.629463053  0.516961125
     0.894071516  0.129463052  0.516961125
     0.129463053  0.105928484  0.516961125
     0.629463054  0.605928483  0.516961125
     0.870536948  0.894071515  0.516961125
     0.370536948  0.394071515  0.516961125
     0.192941832  0.849899877  0.532283845
     0.692941831  0.349899876  0.532283845
     0.807058170  0.150100122  0.532283845
     0.307058170  0.650100122  0.532283845
     0.650100124  0.692941830  0.532283845
     0.150100123  0.192941830  0.532283845
     0.349899878  0.307058169  0.532283845
     0.849899878  0.807058168  0.532283845
     0.706288794  0.260899544  0.527195058
     0.206288795  0.760899545  0.527195058
     0.293711207  0.739100454  0.527195058
     0.793711206  0.239100454  0.527195058
     0.239100455  0.206288794  0.527195058
     0.739100456  0.706288793  0.527195058
     0.760899546  0.793711205  0.527195058
     0.260899546  0.293711206  0.527195058
     0.238106945  0.893010163  0.464504254
     0.738106945  0.393010163  0.464504254
     0.761893056  0.106989835  0.464504254
     0.261893057  0.606989836  0.464504254
     0.606989837  0.738106943  0.464504254
     0.106989837  0.238106944  0.464504254
     0.393010164  0.261893055  0.464504254
     0.893010165  0.761893055  0.464504254
     0.084768198  0.937270480  0.560154625
     0.584768197  0.437270480  0.560154625
     0.915231803  0.062729518  0.560154625
     0.415231804  0.562729519  0.560154625
     0.562729520  0.584768196  0.560154625
     0.062729520  0.084768197  0.560154625
     0.437270481  0.415231802  0.560154625
     0.937270482  0.915231802  0.560154625
     0.562058617  0.335987646  0.465175610
     0.062058617  0.835987647  0.465175610
     0.437941385  0.664012352  0.465175610
     0.937941384  0.164012352  0.465175610
     0.164012353  0.062058616  0.465175610
     0.664012354  0.562058615  0.465175610
     0.835987648  0.937941383  0.465175610
     0.335987648  0.437941383  0.465175610

  ion indices of the primitive-cell ions
   primitive index   ion index
                 1           1
                 2           2
                 3           3
                 4           4
                 5           5
                 6           6
                 7           7
                 8           8
                 9           9
                10          10
                11          11
                12          12
                13          13
                14          14
                15          15
                16          16
                17          17
                18          18
                19          19
                20          20
                21          21
                22          22
                23          23
                24          24
                25          25
                26          26
                27          27
                28          28
                29          29
                30          30
                31          31
                32          32
                33          33
                34          34
                35          35
                36          36
                37          37
                38          38
                39          39
                40          40
                41          41
                42          42
                43          43
                44          44
                45          45
                46          46
                47          47
                48          48
                49          49
                50          50
                51          51
                52          52
                53          53
                54          54
                55          55
                56          56
                57          57
                58          58
                59          59
                60          60
                61          61
                62          62
                63          63
                64          64
                65          65
                66          66
                67          67
                68          68
                69          69
                70          70
                71          71
                72          72
                73          73
                74          74
                75          75
                76          76
                77          77
                78          78
                79          79
                80          80
                81          81
                82          82
                83          83
                84          84
                85          85
                86          86
                87          87
                88          88
                89          89
                90          90

----------------------------------------------------------------------------------------

 
 
 KPOINTS: K-Path Generated by VASPKIT.            

Interpolating k-points between supplied coordinates.

 Line segments in fractional coordinates (reciprocal lattice):
    0.500000  0.500000  0.000000  ...  0.500000  0.000000  0.000000
    0.500000  0.000000  0.000000  ...  1.000000  0.000000  0.000000
    1.000000  0.000000  0.000000  ...  0.500000  0.500000  0.000000
    0.500000  0.500000  0.000000  ...  1.000000  1.000000  0.000000
    1.000000  1.000000  0.000000  ...  1.000000  0.500000  0.000000
    1.000000  0.500000  0.000000  ...  0.500000  0.500000  0.000000

 Generated    20 points on each line segment, for a total of    120 k-points:

 Following reciprocal coordinates:
            Coordinates               Weight
  0.500000  0.500000  0.000000      0.008333
  0.500000  0.473684  0.000000      0.008333
  0.500000  0.447368  0.000000      0.008333
  0.500000  0.421053  0.000000      0.008333
  0.500000  0.394737  0.000000      0.008333
  0.500000  0.368421  0.000000      0.008333
  0.500000  0.342105  0.000000      0.008333
  0.500000  0.315789  0.000000      0.008333
  0.500000  0.289474  0.000000      0.008333
  0.500000  0.263158  0.000000      0.008333
  0.500000  0.236842  0.000000      0.008333
  0.500000  0.210526  0.000000      0.008333
  0.500000  0.184211  0.000000      0.008333
  0.500000  0.157895  0.000000      0.008333
  0.500000  0.131579  0.000000      0.008333
  0.500000  0.105263  0.000000      0.008333
  0.500000  0.078947  0.000000      0.008333
  0.500000  0.052632  0.000000      0.008333
  0.500000  0.026316  0.000000      0.008333
  0.500000  0.000000  0.000000      0.008333
  0.500000  0.000000  0.000000      0.008333
  0.526316  0.000000  0.000000      0.008333
  0.552632  0.000000  0.000000      0.008333
  0.578947  0.000000  0.000000      0.008333
  0.605263  0.000000  0.000000      0.008333
  0.631579  0.000000  0.000000      0.008333
  0.657895  0.000000  0.000000      0.008333
  0.684211  0.000000  0.000000      0.008333
  0.710526  0.000000  0.000000      0.008333
  0.736842  0.000000  0.000000      0.008333
  0.763158  0.000000  0.000000      0.008333
  0.789474  0.000000  0.000000      0.008333
  0.815789  0.000000  0.000000      0.008333
  0.842105  0.000000  0.000000      0.008333
  0.868421  0.000000  0.000000      0.008333
  0.894737  0.000000  0.000000      0.008333
  0.921053  0.000000  0.000000      0.008333
  0.947368  0.000000  0.000000      0.008333
  0.973684  0.000000  0.000000      0.008333
  1.000000  0.000000  0.000000      0.008333
  1.000000  0.000000  0.000000      0.008333
  0.973684  0.026316  0.000000      0.008333
  0.947368  0.052632  0.000000      0.008333
  0.921053  0.078947  0.000000      0.008333
  0.894737  0.105263  0.000000      0.008333
  0.868421  0.131579  0.000000      0.008333
  0.842105  0.157895  0.000000      0.008333
  0.815789  0.184211  0.000000      0.008333
  0.789474  0.210526  0.000000      0.008333
  0.763158  0.236842  0.000000      0.008333
  0.736842  0.263158  0.000000      0.008333
  0.710526  0.289474  0.000000      0.008333
  0.684211  0.315789  0.000000      0.008333
  0.657895  0.342105  0.000000      0.008333
  0.631579  0.368421  0.000000      0.008333
  0.605263  0.394737  0.000000      0.008333
  0.578947  0.421053  0.000000      0.008333
  0.552632  0.447368  0.000000      0.008333
  0.526316  0.473684  0.000000      0.008333
  0.500000  0.500000  0.000000      0.008333
  0.500000  0.500000  0.000000      0.008333
  0.526316  0.526316  0.000000      0.008333
  0.552632  0.552632  0.000000      0.008333
  0.578947  0.578947  0.000000      0.008333
  0.605263  0.605263  0.000000      0.008333
  0.631579  0.631579  0.000000      0.008333
  0.657895  0.657895  0.000000      0.008333
  0.684211  0.684211  0.000000      0.008333
  0.710526  0.710526  0.000000      0.008333
  0.736842  0.736842  0.000000      0.008333
  0.763158  0.763158  0.000000      0.008333
  0.789474  0.789474  0.000000      0.008333
  0.815789  0.815789  0.000000      0.008333
  0.842105  0.842105  0.000000      0.008333
  0.868421  0.868421  0.000000      0.008333
  0.894737  0.894737  0.000000      0.008333
  0.921053  0.921053  0.000000      0.008333
  0.947368  0.947368  0.000000      0.008333
  0.973684  0.973684  0.000000      0.008333
  1.000000  1.000000  0.000000      0.008333
  1.000000  1.000000  0.000000      0.008333
  1.000000  0.973684  0.000000      0.008333
  1.000000  0.947368  0.000000      0.008333
  1.000000  0.921053  0.000000      0.008333
  1.000000  0.894737  0.000000      0.008333
  1.000000  0.868421  0.000000      0.008333
  1.000000  0.842105  0.000000      0.008333
  1.000000  0.815789  0.000000      0.008333
  1.000000  0.789474  0.000000      0.008333
  1.000000  0.763158  0.000000      0.008333
  1.000000  0.736842  0.000000      0.008333
  1.000000  0.710526  0.000000      0.008333
  1.000000  0.684211  0.000000      0.008333
  1.000000  0.657895  0.000000      0.008333
  1.000000  0.631579  0.000000      0.008333
  1.000000  0.605263  0.000000      0.008333
  1.000000  0.578947  0.000000      0.008333
  1.000000  0.552632  0.000000      0.008333
  1.000000  0.526316  0.000000      0.008333
  1.000000  0.500000  0.000000      0.008333
  1.000000  0.500000  0.000000      0.008333
  0.973684  0.500000  0.000000      0.008333
  0.947368  0.500000  0.000000      0.008333
  0.921053  0.500000  0.000000      0.008333
  0.894737  0.500000  0.000000      0.008333
  0.868421  0.500000  0.000000      0.008333
  0.842105  0.500000  0.000000      0.008333
  0.815789  0.500000  0.000000      0.008333
  0.789474  0.500000  0.000000      0.008333
  0.763158  0.500000  0.000000      0.008333
  0.736842  0.500000  0.000000      0.008333
  0.710526  0.500000  0.000000      0.008333
  0.684211  0.500000  0.000000      0.008333
  0.657895  0.500000  0.000000      0.008333
  0.631579  0.500000  0.000000      0.008333
  0.605263  0.500000  0.000000      0.008333
  0.578947  0.500000  0.000000      0.008333
  0.552632  0.500000  0.000000      0.008333
  0.526316  0.500000  0.000000      0.008333
  0.500000  0.500000  0.000000      0.008333

 Following cartesian coordinates:
            Coordinates               Weight
  0.029527  0.029527 -0.000000      0.008333
  0.029527  0.027973 -0.000000      0.008333
  0.029527  0.026419 -0.000000      0.008333
  0.029527  0.024865 -0.000000      0.008333
  0.029527  0.023311 -0.000000      0.008333
  0.029527  0.021757 -0.000000      0.008333
  0.029527  0.020203 -0.000000      0.008333
  0.029527  0.018649 -0.000000      0.008333
  0.029527  0.017095 -0.000000      0.008333
  0.029527  0.015541 -0.000000      0.008333
  0.029527  0.013986 -0.000000      0.008333
  0.029527  0.012432 -0.000000      0.008333
  0.029527  0.010878 -0.000000      0.008333
  0.029527  0.009324 -0.000000      0.008333
  0.029527  0.007770 -0.000000      0.008333
  0.029527  0.006216 -0.000000      0.008333
  0.029527  0.004662 -0.000000      0.008333
  0.029527  0.003108 -0.000000      0.008333
  0.029527  0.001554 -0.000000      0.008333
  0.029527 -0.000000 -0.000000      0.008333
  0.029527 -0.000000 -0.000000      0.008333
  0.031081 -0.000000 -0.000000      0.008333
  0.032635 -0.000000 -0.000000      0.008333
  0.034189 -0.000000 -0.000000      0.008333
  0.035743 -0.000000 -0.000000      0.008333
  0.037297 -0.000000 -0.000000      0.008333
  0.038851 -0.000000 -0.000000      0.008333
  0.040405 -0.000000 -0.000000      0.008333
  0.041959 -0.000000 -0.000000      0.008333
  0.043513 -0.000000 -0.000000      0.008333
  0.045068 -0.000000 -0.000000      0.008333
  0.046622 -0.000000 -0.000000      0.008333
  0.048176 -0.000000 -0.000000      0.008333
  0.049730 -0.000000 -0.000000      0.008333
  0.051284 -0.000000 -0.000000      0.008333
  0.052838 -0.000000 -0.000000      0.008333
  0.054392 -0.000000 -0.000000      0.008333
  0.055946 -0.000000 -0.000000      0.008333
  0.057500 -0.000000 -0.000000      0.008333
  0.059054 -0.000000 -0.000000      0.008333
  0.059054 -0.000000 -0.000000      0.008333
  0.057500  0.001554 -0.000000      0.008333
  0.055946  0.003108 -0.000000      0.008333
  0.054392  0.004662 -0.000000      0.008333
  0.052838  0.006216 -0.000000      0.008333
  0.051284  0.007770 -0.000000      0.008333
  0.049730  0.009324 -0.000000      0.008333
  0.048176  0.010878 -0.000000      0.008333
  0.046622  0.012432 -0.000000      0.008333
  0.045068  0.013986 -0.000000      0.008333
  0.043513  0.015541 -0.000000      0.008333
  0.041959  0.017095 -0.000000      0.008333
  0.040405  0.018649 -0.000000      0.008333
  0.038851  0.020203 -0.000000      0.008333
  0.037297  0.021757 -0.000000      0.008333
  0.035743  0.023311 -0.000000      0.008333
  0.034189  0.024865 -0.000000      0.008333
  0.032635  0.026419 -0.000000      0.008333
  0.031081  0.027973 -0.000000      0.008333
  0.029527  0.029527 -0.000000      0.008333
  0.029527  0.029527 -0.000000      0.008333
  0.031081  0.031081 -0.000000      0.008333
  0.032635  0.032635 -0.000000      0.008333
  0.034189  0.034189 -0.000000      0.008333
  0.035743  0.035743 -0.000000      0.008333
  0.037297  0.037297 -0.000000      0.008333
  0.038851  0.038851 -0.000000      0.008333
  0.040405  0.040405 -0.000000      0.008333
  0.041959  0.041959 -0.000000      0.008333
  0.043513  0.043513 -0.000000      0.008333
  0.045068  0.045068 -0.000000      0.008333
  0.046622  0.046622 -0.000000      0.008333
  0.048176  0.048176 -0.000000      0.008333
  0.049730  0.049730 -0.000000      0.008333
  0.051284  0.051284 -0.000000      0.008333
  0.052838  0.052838 -0.000000      0.008333
  0.054392  0.054392 -0.000000      0.008333
  0.055946  0.055946 -0.000000      0.008333
  0.057500  0.057500 -0.000000      0.008333
  0.059054  0.059054 -0.000000      0.008333
  0.059054  0.059054 -0.000000      0.008333
  0.059054  0.057500 -0.000000      0.008333
  0.059054  0.055946 -0.000000      0.008333
  0.059054  0.054392 -0.000000      0.008333
  0.059054  0.052838 -0.000000      0.008333
  0.059054  0.051284 -0.000000      0.008333
  0.059054  0.049730 -0.000000      0.008333
  0.059054  0.048176 -0.000000      0.008333
  0.059054  0.046622 -0.000000      0.008333
  0.059054  0.045068 -0.000000      0.008333
  0.059054  0.043513 -0.000000      0.008333
  0.059054  0.041959 -0.000000      0.008333
  0.059054  0.040405 -0.000000      0.008333
  0.059054  0.038851 -0.000000      0.008333
  0.059054  0.037297 -0.000000      0.008333
  0.059054  0.035743 -0.000000      0.008333
  0.059054  0.034189 -0.000000      0.008333
  0.059054  0.032635 -0.000000      0.008333
  0.059054  0.031081 -0.000000      0.008333
  0.059054  0.029527 -0.000000      0.008333
  0.059054  0.029527 -0.000000      0.008333
  0.057500  0.029527 -0.000000      0.008333
  0.055946  0.029527 -0.000000      0.008333
  0.054392  0.029527 -0.000000      0.008333
  0.052838  0.029527 -0.000000      0.008333
  0.051284  0.029527 -0.000000      0.008333
  0.049730  0.029527 -0.000000      0.008333
  0.048176  0.029527 -0.000000      0.008333
  0.046622  0.029527 -0.000000      0.008333
  0.045068  0.029527 -0.000000      0.008333
  0.043513  0.029527 -0.000000      0.008333
  0.041959  0.029527 -0.000000      0.008333
  0.040405  0.029527 -0.000000      0.008333
  0.038851  0.029527 -0.000000      0.008333
  0.037297  0.029527 -0.000000      0.008333
  0.035743  0.029527 -0.000000      0.008333
  0.034189  0.029527 -0.000000      0.008333
  0.032635  0.029527 -0.000000      0.008333
  0.031081  0.029527 -0.000000      0.008333
  0.029527  0.029527 -0.000000      0.008333
 


--------------------------------------------------------------------------------------------------------




 Dimension of arrays:
   k-points           NKPTS =    120   k-points in BZ     NKDIM =    120   number of bands    NBANDS=    196
   number of dos      NEDOS =    301   number of ions     NIONS =     90
   non local maximal  LDIM  =      6   non local SUM 2l+1 LMDIM =     18
   total plane-waves  NPLWV = 774144
   max r-space proj   IRMAX =   1744   max aug-charges    IRDMAX=   6462
   dimension x,y,z NGX =    96 NGY =   96 NGZ =   84
   dimension x,y,z NGXF=   192 NGYF=  192 NGZF=  168
   support grid    NGXF=   192 NGYF=  192 NGZF=  168
   ions per type =               2  40  24   8  16
   NGX,Y,Z   is equivalent  to a cutoff of   9.42,  9.42,  9.31 a.u.
   NGXF,Y,Z  is equivalent  to a cutoff of  18.85, 18.85, 18.62 a.u.

 SYSTEM =  unknown system                          
 POSCAR =  Generated by VASPKIT code               

 Startparameter for this run:
   NWRITE =      2    write-flag & timer
   PREC   = normal    normal or accurate (medium, high low for compatibility)
   ISTART =      0    job   : 0-new  1-cont  2-samecut
   ICHARG =     11    charge: 1-file 2-atom 10-const
   ISPIN  =      2    spin polarized calculation?
   LNONCOLLINEAR =      F non collinear calculations
   LSORBIT =      F    spin-orbit coupling
   INIWAV =      1    electr: 0-lowe 1-rand  2-diag
   LASPH  =      F    aspherical Exc in radial PAW
 Electronic Relaxation 1
   ENCUT  =  500.0 eV  36.75 Ry    6.06 a.u.  30.87 30.87 27.35*2*pi/ulx,y,z
   ENINI  =  500.0     initial cutoff
   ENAUG  =  644.9 eV  augmentation charge cutoff
   NELM   =    200;   NELMIN=  2; NELMDL=  0     # of ELM steps 
   EDIFF  = 0.1E-04   stopping-criterion for ELM
   LREAL  =      T    real-space projection
   NLSPLINE    = F    spline interpolate recip. space projectors
   LCOMPAT=      F    compatible to vasp.4.4
   GGA_COMPAT  = T    GGA compatible to vasp.4.4-vasp.4.6
   LMAXPAW     = -100 max onsite density
   LMAXMIX     =    4 max onsite mixed and CHGCAR
   VOSKOWN=      0    Vosko Wilk Nusair interpolation
   ROPT   =   -0.00050  -0.00050  -0.00050  -0.00050
   ROPT   =   -0.00050
 Ionic relaxation
   EDIFFG = -.1E-01   stopping-criterion for IOM
   NSW    =      0    number of steps for IOM
   NBLOCK =      1;   KBLOCK =      1    inner block; outer block 
   IBRION =     -1    ionic relax: 0-MD 1-quasi-New 2-CG
   NFREE  =      0    steps in history (QN), initial steepest desc. (CG)
   ISIF   =      2    stress and relaxation
   IWAVPR =     10    prediction:  0-non 1-charg 2-wave 3-comb
   ISYM   =      2    0-nonsym 1-usesym 2-fastsym
   LCORR  =      T    Harris-Foulkes like correction to forces

   POTIM  = 0.5000    time-step for ionic-motion
   TEIN   =    0.0    initial temperature
   TEBEG  =    0.0;   TEEND  =   0.0 temperature during run
   SMASS  =  -3.00    Nose mass-parameter (am)
   estimated Nose-frequenzy (Omega)   =  0.10E-29 period in steps = 0.13E+47 mass=  -0.655E-26a.u.
   SCALEE = 1.0000    scale energy and forces
   NPACO  =    256;   APACO  = 10.0  distance and # of slots for P.C.
   PSTRESS=    0.0 pullay stress

  Mass of Ions in am
   POMASS =  52.00  1.00 12.01 14.00 16.00
  Ionic Valenz
   ZVAL   =  12.00  1.00  4.00  5.00  6.00
  Atomic Wigner-Seitz radii
   RWIGS  =  -1.00 -1.00 -1.00 -1.00 -1.00
  virtual crystal weights 
   VCA    =   1.00  1.00  1.00  1.00  1.00
   NELECT =     296.0000    total number of electrons
   NUPDOWN=      -1.0000    fix difference up-down

 DOS related values:
   EMIN   =  10.00;   EMAX   =-10.00  energy-range for DOS
   EFERMI =   0.00
   ISMEAR =     1;   SIGMA  =   0.20  broadening in eV -4-tet -1-fermi 0-gaus

 Electronic relaxation 2 (details)
   IALGO  =     68    algorithm
   LDIAG  =      T    sub-space diagonalisation (order eigenvalues)
   LSUBROT=      F    optimize rotation matrix (better conditioning)
   TURBO    =      0    0=normal 1=particle mesh
   IRESTART =      0    0=no restart 2=restart with 2 vectors
   NREBOOT  =      0    no. of reboots
   NMIN     =      0    reboot dimension
   EREF     =   0.00    reference energy to select bands
   IMIX   =      4    mixing-type and parameters
     AMIX     =   0.20;   BMIX     =  0.00
     AMIX_MAG =   0.80;   BMIX_MAG =  0.00
     AMIN     =   0.10
     WC   =   100.;   INIMIX=   1;  MIXPRE=   1;  MAXMIX= -45

 Intra band minimization:
   WEIMIN = 0.0000     energy-eigenvalue tresh-hold
   EBREAK =  0.13E-07  absolut break condition
   DEPER  =   0.30     relativ break condition  

   TIME   =   0.40     timestep for ELM

  volume/ion in A,a.u.               =      47.79       322.51
  Fermi-wavevector in a.u.,A,eV,Ry     =   0.670874  1.267769  6.123608  0.450073
  Thomas-Fermi vector in A             =   1.746524
 
 Write flags
   LWAVE        =      F    write WAVECAR
   LDOWNSAMPLE  =      F    k-point downsampling of WAVECAR
   LCHARG       =      F    write CHGCAR
   LVTOT        =      T    write LOCPOT, total local potential
   LVHAR        =      F    write LOCPOT, Hartree potential only
   LELF         =      F    write electronic localiz. function (ELF)
   LORBIT       =     11    0 simple, 1 ext, 2 COOP (PROOUT), +10 PAW based schemes


 Dipole corrections
   LMONO  =      F    monopole corrections only (constant potential shift)
   LDIPOL =      F    correct potential (dipole corrections)
   IDIPOL =      0    1-x, 2-y, 3-z, 4-all directions 
   EPSILON=  1.0000000 bulk dielectric constant

 LDA+U is selected, type is set to LDAUTYPE =  2
   angular momentum for each species LDAUL =     2   -1   -1   -1   -1
   U (eV)           for each species LDAUU =   3.0  0.0  0.0  0.0  0.0
   J (eV)           for each species LDAUJ =   1.0  0.0  0.0  0.0  0.0
 Exchange correlation treatment:
   GGA     =    --    GGA type
   LEXCH   =     8    internal setting for exchange type
   LIBXC   =     F    Libxc                    
   VOSKOWN =     0    Vosko Wilk Nusair interpolation
   LHFCALC =     F    Hartree Fock is set to
   LHFONE  =     F    Hartree Fock one center treatment
   AEXX    =    0.0000 exact exchange contribution

 Linear response parameters
   LEPSILON=     F    determine dielectric tensor
   LRPA    =     F    only Hartree local field effects (RPA)
   LNABLA  =     F    use nabla operator in PAW spheres
   LVEL    =     F    velocity operator in full k-point grid
   CSHIFT  =0.1000    complex shift for real part using Kramers Kronig
   OMEGAMAX=  -1.0    maximum frequency
   DEG_THRESHOLD= 0.2000000E-02 threshold for treating states as degnerate
   RTIME   =   -0.100 relaxation time in fs
  (WPLASMAI=    0.000 imaginary part of plasma frequency in eV, 0.658/RTIME)
   DFIELD  = 0.0000000 0.0000000 0.0000000 field for delta impulse in time
 
  Optional k-point grid parameters
   LKPOINTS_OPT  =     F    use optional k-point grid
   KPOINTS_OPT_MODE=     1    mode for optional k-point grid
 
 Orbital magnetization related:
   ORBITALMAG=     F  switch on orbital magnetization
   LCHIMAG   =     F  perturbation theory with respect to B field
   DQ        =  0.001000  dq finite difference perturbation B field
   LLRAUG    =     F  two centre corrections for induced B field



--------------------------------------------------------------------------------------------------------


 Static calculation
 charge density and potential remain constant during run
 spin polarized calculation
 RMM-DIIS sequential band-by-band and
  variant of blocked Davidson during initial phase
 perform sub-space diagonalisation
    before iterative eigenvector-optimisation
 no mixing
 using additional bands           48
 real space projection scheme for non local part
 use partial core corrections
 calculate Harris-corrections to forces 
   (improved forces if not selfconsistent)
 use gradient corrections 
 WARNING: stress and forces are not correct
  (second derivative of E(xc) not defined)
 use of overlap-Matrix (Vanderbilt PP)
 Methfessel and Paxton  Order N= 1 SIGMA  =   0.20


--------------------------------------------------------------------------------------------------------


  energy-cutoff  :      500.00
  volume of cell :     4301.23
      direct lattice vectors                 reciprocal lattice vectors
    16.933650971  0.000000000  0.000000000     0.059054010 -0.000000000 -0.000000000
     0.000000000 16.933650971  0.000000000     0.000000000  0.059054010 -0.000000000
     0.000000000  0.000000000 15.000000000     0.000000000  0.000000000  0.066666667

  length of vectors
    16.933650971 16.933650971 15.000000000     0.059054010  0.059054010  0.066666667


 
 k-points in units of 2pi/SCALE and weight: K-Path Generated by VASPKIT.            
   0.02952701  0.02952701 -0.00000000       0.008
   0.02952701  0.02797295 -0.00000000       0.008
   0.02952701  0.02641890 -0.00000000       0.008
   0.02952701  0.02486485 -0.00000000       0.008
   0.02952701  0.02331079 -0.00000000       0.008
   0.02952701  0.02175674 -0.00000000       0.008
   0.02952701  0.02020269 -0.00000000       0.008
   0.02952701  0.01864863 -0.00000000       0.008
   0.02952701  0.01709458 -0.00000000       0.008
   0.02952701  0.01554053 -0.00000000       0.008
   0.02952701  0.01398648 -0.00000000       0.008
   0.02952701  0.01243242 -0.00000000       0.008
   0.02952701  0.01087837 -0.00000000       0.008
   0.02952701  0.00932432 -0.00000000       0.008
   0.02952701  0.00777026 -0.00000000       0.008
   0.02952701  0.00621621 -0.00000000       0.008
   0.02952701  0.00466216 -0.00000000       0.008
   0.02952701  0.00310811 -0.00000000       0.008
   0.02952701  0.00155405 -0.00000000       0.008
   0.02952701 -0.00000000 -0.00000000       0.008
   0.02952701 -0.00000000 -0.00000000       0.008
   0.03108106 -0.00000000 -0.00000000       0.008
   0.03263511 -0.00000000 -0.00000000       0.008
   0.03418916 -0.00000000 -0.00000000       0.008
   0.03574322 -0.00000000 -0.00000000       0.008
   0.03729727 -0.00000000 -0.00000000       0.008
   0.03885132 -0.00000000 -0.00000000       0.008
   0.04040538 -0.00000000 -0.00000000       0.008
   0.04195943 -0.00000000 -0.00000000       0.008
   0.04351348 -0.00000000 -0.00000000       0.008
   0.04506753 -0.00000000 -0.00000000       0.008
   0.04662159 -0.00000000 -0.00000000       0.008
   0.04817564 -0.00000000 -0.00000000       0.008
   0.04972969 -0.00000000 -0.00000000       0.008
   0.05128375 -0.00000000 -0.00000000       0.008
   0.05283780 -0.00000000 -0.00000000       0.008
   0.05439185 -0.00000000 -0.00000000       0.008
   0.05594590 -0.00000000 -0.00000000       0.008
   0.05749996 -0.00000000 -0.00000000       0.008
   0.05905401 -0.00000000 -0.00000000       0.008
   0.05905401 -0.00000000 -0.00000000       0.008
   0.05749996  0.00155405 -0.00000000       0.008
   0.05594590  0.00310811 -0.00000000       0.008
   0.05439185  0.00466216 -0.00000000       0.008
   0.05283780  0.00621621 -0.00000000       0.008
   0.05128375  0.00777026 -0.00000000       0.008
   0.04972969  0.00932432 -0.00000000       0.008
   0.04817564  0.01087837 -0.00000000       0.008
   0.04662159  0.01243242 -0.00000000       0.008
   0.04506753  0.01398648 -0.00000000       0.008
   0.04351348  0.01554053 -0.00000000       0.008
   0.04195943  0.01709458 -0.00000000       0.008
   0.04040538  0.01864863 -0.00000000       0.008
   0.03885132  0.02020269 -0.00000000       0.008
   0.03729727  0.02175674 -0.00000000       0.008
   0.03574322  0.02331079 -0.00000000       0.008
   0.03418916  0.02486485 -0.00000000       0.008
   0.03263511  0.02641890 -0.00000000       0.008
   0.03108106  0.02797295 -0.00000000       0.008
   0.02952701  0.02952701 -0.00000000       0.008
   0.02952701  0.02952701 -0.00000000       0.008
   0.03108106  0.03108106 -0.00000000       0.008
   0.03263511  0.03263511 -0.00000000       0.008
   0.03418916  0.03418916 -0.00000000       0.008
   0.03574322  0.03574322 -0.00000000       0.008
   0.03729727  0.03729727 -0.00000000       0.008
   0.03885132  0.03885132 -0.00000000       0.008
   0.04040538  0.04040538 -0.00000000       0.008
   0.04195943  0.04195943 -0.00000000       0.008
   0.04351348  0.04351348 -0.00000000       0.008
   0.04506753  0.04506753 -0.00000000       0.008
   0.04662159  0.04662159 -0.00000000       0.008
   0.04817564  0.04817564 -0.00000000       0.008
   0.04972969  0.04972969 -0.00000000       0.008
   0.05128375  0.05128375 -0.00000000       0.008
   0.05283780  0.05283780 -0.00000000       0.008
   0.05439185  0.05439185 -0.00000000       0.008
   0.05594590  0.05594590 -0.00000000       0.008
   0.05749996  0.05749996 -0.00000000       0.008
   0.05905401  0.05905401 -0.00000000       0.008
   0.05905401  0.05905401 -0.00000000       0.008
   0.05905401  0.05749996 -0.00000000       0.008
   0.05905401  0.05594590 -0.00000000       0.008
   0.05905401  0.05439185 -0.00000000       0.008
   0.05905401  0.05283780 -0.00000000       0.008
   0.05905401  0.05128375 -0.00000000       0.008
   0.05905401  0.04972969 -0.00000000       0.008
   0.05905401  0.04817564 -0.00000000       0.008
   0.05905401  0.04662159 -0.00000000       0.008
   0.05905401  0.04506753 -0.00000000       0.008
   0.05905401  0.04351348 -0.00000000       0.008
   0.05905401  0.04195943 -0.00000000       0.008
   0.05905401  0.04040538 -0.00000000       0.008
   0.05905401  0.03885132 -0.00000000       0.008
   0.05905401  0.03729727 -0.00000000       0.008
   0.05905401  0.03574322 -0.00000000       0.008
   0.05905401  0.03418916 -0.00000000       0.008
   0.05905401  0.03263511 -0.00000000       0.008
   0.05905401  0.03108106 -0.00000000       0.008
   0.05905401  0.02952701 -0.00000000       0.008
   0.05905401  0.02952701 -0.00000000       0.008
   0.05749996  0.02952701 -0.00000000       0.008
   0.05594590  0.02952701 -0.00000000       0.008
   0.05439185  0.02952701 -0.00000000       0.008
   0.05283780  0.02952701 -0.00000000       0.008
   0.05128375  0.02952701 -0.00000000       0.008
   0.04972969  0.02952701 -0.00000000       0.008
   0.04817564  0.02952701 -0.00000000       0.008
   0.04662159  0.02952701 -0.00000000       0.008
   0.04506753  0.02952701 -0.00000000       0.008
   0.04351348  0.02952701 -0.00000000       0.008
   0.04195943  0.02952701 -0.00000000       0.008
   0.04040538  0.02952701 -0.00000000       0.008
   0.03885132  0.02952701 -0.00000000       0.008
   0.03729727  0.02952701 -0.00000000       0.008
   0.03574322  0.02952701 -0.00000000       0.008
   0.03418916  0.02952701 -0.00000000       0.008
   0.03263511  0.02952701 -0.00000000       0.008
   0.03108106  0.02952701 -0.00000000       0.008
   0.02952701  0.02952701 -0.00000000       0.008
 
 k-points in reciprocal lattice and weights: K-Path Generated by VASPKIT.            
   0.50000000  0.50000000  0.00000000       0.008
   0.50000000  0.47368421  0.00000000       0.008
   0.50000000  0.44736842  0.00000000       0.008
   0.50000000  0.42105263  0.00000000       0.008
   0.50000000  0.39473684  0.00000000       0.008
   0.50000000  0.36842105  0.00000000       0.008
   0.50000000  0.34210526  0.00000000       0.008
   0.50000000  0.31578947  0.00000000       0.008
   0.50000000  0.28947368  0.00000000       0.008
   0.50000000  0.26315789  0.00000000       0.008
   0.50000000  0.23684211  0.00000000       0.008
   0.50000000  0.21052632  0.00000000       0.008
   0.50000000  0.18421053  0.00000000       0.008
   0.50000000  0.15789474  0.00000000       0.008
   0.50000000  0.13157895  0.00000000       0.008
   0.50000000  0.10526316  0.00000000       0.008
   0.50000000  0.07894737  0.00000000       0.008
   0.50000000  0.05263158  0.00000000       0.008
   0.50000000  0.02631579  0.00000000       0.008
   0.50000000  0.00000000  0.00000000       0.008
   0.50000000  0.00000000  0.00000000       0.008
   0.52631579  0.00000000  0.00000000       0.008
   0.55263158  0.00000000  0.00000000       0.008
   0.57894737  0.00000000  0.00000000       0.008
   0.60526316  0.00000000  0.00000000       0.008
   0.63157895  0.00000000  0.00000000       0.008
   0.65789474  0.00000000  0.00000000       0.008
   0.68421053  0.00000000  0.00000000       0.008
   0.71052632  0.00000000  0.00000000       0.008
   0.73684211  0.00000000  0.00000000       0.008
   0.76315789  0.00000000  0.00000000       0.008
   0.78947368  0.00000000  0.00000000       0.008
   0.81578947  0.00000000  0.00000000       0.008
   0.84210526  0.00000000  0.00000000       0.008
   0.86842105  0.00000000  0.00000000       0.008
   0.89473684  0.00000000  0.00000000       0.008
   0.92105263  0.00000000  0.00000000       0.008
   0.94736842  0.00000000  0.00000000       0.008
   0.97368421  0.00000000  0.00000000       0.008
   1.00000000  0.00000000  0.00000000       0.008
   1.00000000  0.00000000  0.00000000       0.008
   0.97368421  0.02631579  0.00000000       0.008
   0.94736842  0.05263158  0.00000000       0.008
   0.92105263  0.07894737  0.00000000       0.008
   0.89473684  0.10526316  0.00000000       0.008
   0.86842105  0.13157895  0.00000000       0.008
   0.84210526  0.15789474  0.00000000       0.008
   0.81578947  0.18421053  0.00000000       0.008
   0.78947368  0.21052632  0.00000000       0.008
   0.76315789  0.23684211  0.00000000       0.008
   0.73684211  0.26315789  0.00000000       0.008
   0.71052632  0.28947368  0.00000000       0.008
   0.68421053  0.31578947  0.00000000       0.008
   0.65789474  0.34210526  0.00000000       0.008
   0.63157895  0.36842105  0.00000000       0.008
   0.60526316  0.39473684  0.00000000       0.008
   0.57894737  0.42105263  0.00000000       0.008
   0.55263158  0.44736842  0.00000000       0.008
   0.52631579  0.47368421  0.00000000       0.008
   0.50000000  0.50000000  0.00000000       0.008
   0.50000000  0.50000000  0.00000000       0.008
   0.52631579  0.52631579  0.00000000       0.008
   0.55263158  0.55263158  0.00000000       0.008
   0.57894737  0.57894737  0.00000000       0.008
   0.60526316  0.60526316  0.00000000       0.008
   0.63157895  0.63157895  0.00000000       0.008
   0.65789474  0.65789474  0.00000000       0.008
   0.68421053  0.68421053  0.00000000       0.008
   0.71052632  0.71052632  0.00000000       0.008
   0.73684211  0.73684211  0.00000000       0.008
   0.76315789  0.76315789  0.00000000       0.008
   0.78947368  0.78947368  0.00000000       0.008
   0.81578947  0.81578947  0.00000000       0.008
   0.84210526  0.84210526  0.00000000       0.008
   0.86842105  0.86842105  0.00000000       0.008
   0.89473684  0.89473684  0.00000000       0.008
   0.92105263  0.92105263  0.00000000       0.008
   0.94736842  0.94736842  0.00000000       0.008
   0.97368421  0.97368421  0.00000000       0.008
   1.00000000  1.00000000  0.00000000       0.008
   1.00000000  1.00000000  0.00000000       0.008
   1.00000000  0.97368421  0.00000000       0.008
   1.00000000  0.94736842  0.00000000       0.008
   1.00000000  0.92105263  0.00000000       0.008
   1.00000000  0.89473684  0.00000000       0.008
   1.00000000  0.86842105  0.00000000       0.008
   1.00000000  0.84210526  0.00000000       0.008
   1.00000000  0.81578947  0.00000000       0.008
   1.00000000  0.78947368  0.00000000       0.008
   1.00000000  0.76315789  0.00000000       0.008
   1.00000000  0.73684211  0.00000000       0.008
   1.00000000  0.71052632  0.00000000       0.008
   1.00000000  0.68421053  0.00000000       0.008
   1.00000000  0.65789474  0.00000000       0.008
   1.00000000  0.63157895  0.00000000       0.008
   1.00000000  0.60526316  0.00000000       0.008
   1.00000000  0.57894737  0.00000000       0.008
   1.00000000  0.55263158  0.00000000       0.008
   1.00000000  0.52631579  0.00000000       0.008
   1.00000000  0.50000000  0.00000000       0.008
   1.00000000  0.50000000  0.00000000       0.008
   0.97368421  0.50000000  0.00000000       0.008
   0.94736842  0.50000000  0.00000000       0.008
   0.92105263  0.50000000  0.00000000       0.008
   0.89473684  0.50000000  0.00000000       0.008
   0.86842105  0.50000000  0.00000000       0.008
   0.84210526  0.50000000  0.00000000       0.008
   0.81578947  0.50000000  0.00000000       0.008
   0.78947368  0.50000000  0.00000000       0.008
   0.76315789  0.50000000  0.00000000       0.008
   0.73684211  0.50000000  0.00000000       0.008
   0.71052632  0.50000000  0.00000000       0.008
   0.68421053  0.50000000  0.00000000       0.008
   0.65789474  0.50000000  0.00000000       0.008
   0.63157895  0.50000000  0.00000000       0.008
   0.60526316  0.50000000  0.00000000       0.008
   0.57894737  0.50000000  0.00000000       0.008
   0.55263158  0.50000000  0.00000000       0.008
   0.52631579  0.50000000  0.00000000       0.008
   0.50000000  0.50000000  0.00000000       0.008
 
 position of ions in fractional coordinates (direct lattice) 
   0.00000000  0.00000000  0.57730888
   0.50000000  0.50000000  0.57730888
   0.21094312  0.87291715  0.59780539
   0.71094312  0.37291715  0.59780539
   0.78905689  0.12708285  0.59780539
   0.28905689  0.62708285  0.59780539
   0.62708285  0.71094311  0.59780539
   0.12708285  0.21094311  0.59780539
   0.37291715  0.28905688  0.59780539
   0.87291715  0.78905688  0.59780539
   0.67740918  0.23769955  0.46705286
   0.17740918  0.73769955  0.46705286
   0.32259082  0.76230045  0.46705286
   0.82259082  0.26230045  0.46705286
   0.26230045  0.17740918  0.46705286
   0.76230045  0.67740918  0.46705286
   0.73769955  0.82259082  0.46705286
   0.23769955  0.32259082  0.46705286
   0.67576003  0.23265554  0.58370260
   0.17576003  0.73265554  0.58370260
   0.32423997  0.76734446  0.58370260
   0.82423997  0.26734446  0.58370260
   0.26734446  0.17576003  0.58370260
   0.76734446  0.67576003  0.58370260
   0.73265554  0.82423997  0.58370260
   0.23265554  0.32423997  0.58370260
   0.22735820  0.95244191  0.46841262
   0.72735820  0.45244191  0.46841262
   0.77264180  0.04755809  0.46841262
   0.27264180  0.54755809  0.46841262
   0.54755809  0.72735820  0.46841262
   0.04755809  0.22735820  0.46841262
   0.45244191  0.27264180  0.46841262
   0.95244191  0.77264180  0.46841262
   0.22131626  0.87514538  0.40219461
   0.72131626  0.37514538  0.40219461
   0.77868374  0.12485462  0.40219461
   0.27868374  0.62485462  0.40219461
   0.62485462  0.72131626  0.40219461
   0.12485462  0.22131626  0.40219461
   0.37514538  0.27868374  0.40219461
   0.87514538  0.77868374  0.40219461
   0.60592848  0.37053695  0.51696113
   0.10592849  0.87053695  0.51696113
   0.39407152  0.62946305  0.51696113
   0.89407152  0.12946305  0.51696113
   0.12946305  0.10592848  0.51696113
   0.62946305  0.60592848  0.51696113
   0.87053695  0.89407151  0.51696113
   0.37053695  0.39407152  0.51696113
   0.19294183  0.84989988  0.53228384
   0.69294183  0.34989988  0.53228384
   0.80705817  0.15010012  0.53228384
   0.30705817  0.65010012  0.53228384
   0.65010012  0.69294183  0.53228384
   0.15010012  0.19294183  0.53228384
   0.34989988  0.30705817  0.53228384
   0.84989988  0.80705817  0.53228384
   0.70628879  0.26089954  0.52719506
   0.20628879  0.76089954  0.52719506
   0.29371121  0.73910045  0.52719506
   0.79371121  0.23910045  0.52719506
   0.23910046  0.20628879  0.52719506
   0.73910046  0.70628879  0.52719506
   0.76089955  0.79371121  0.52719506
   0.26089955  0.29371121  0.52719506
   0.23810695  0.89301016  0.46450425
   0.73810694  0.39301016  0.46450425
   0.76189306  0.10698984  0.46450425
   0.26189306  0.60698984  0.46450425
   0.60698984  0.73810694  0.46450425
   0.10698984  0.23810694  0.46450425
   0.39301016  0.26189306  0.46450425
   0.89301016  0.76189305  0.46450425
   0.08476820  0.93727048  0.56015463
   0.58476820  0.43727048  0.56015463
   0.91523180  0.06272952  0.56015463
   0.41523180  0.56272952  0.56015463
   0.56272952  0.58476820  0.56015463
   0.06272952  0.08476820  0.56015463
   0.43727048  0.41523180  0.56015463
   0.93727048  0.91523180  0.56015463
   0.56205862  0.33598765  0.46517561
   0.06205862  0.83598765  0.46517561
   0.43794138  0.66401235  0.46517561
   0.93794138  0.16401235  0.46517561
   0.16401235  0.06205862  0.46517561
   0.66401235  0.56205862  0.46517561
[...]
   0.248E+03 -.845E+02 -.229E+03   -.255E+03 0.621E+02 0.245E+03   0.509E+01 0.236E+02 -.158E+02   0.187E-01 -.257E-01 0.271E-03
   0.248E+03 -.844E+02 -.230E+03   -.255E+03 0.621E+02 0.245E+03   0.473E+01 0.236E+02 -.156E+02   0.113E-01 -.240E-01 -.170E-02
   -.845E+02 -.248E+03 -.229E+03   0.621E+02 0.255E+03 0.245E+03   0.236E+02 -.509E+01 -.158E+02   -.257E-01 -.187E-01 0.275E-03
   -.844E+02 -.248E+03 -.230E+03   0.621E+02 0.255E+03 0.245E+03   0.236E+02 -.473E+01 -.156E+02   -.240E-01 -.113E-01 -.169E-02
   0.845E+02 0.248E+03 -.229E+03   -.621E+02 -.255E+03 0.245E+03   -.236E+02 0.509E+01 -.158E+02   0.257E-01 0.187E-01 0.273E-03
   0.844E+02 0.248E+03 -.230E+03   -.621E+02 -.255E+03 0.245E+03   -.236E+02 0.473E+01 -.156E+02   0.240E-01 0.113E-01 -.169E-02
   0.971E+02 0.302E+03 0.344E+03   -.129E+03 -.327E+03 -.378E+03   0.316E+02 0.249E+02 0.341E+02   -.843E-02 -.477E-03 -.764E-02
   0.971E+02 0.302E+03 0.344E+03   -.129E+03 -.327E+03 -.378E+03   0.316E+02 0.248E+02 0.340E+02   -.172E-01 -.487E-02 -.703E-02
   -.971E+02 -.302E+03 0.344E+03   0.129E+03 0.327E+03 -.378E+03   -.316E+02 -.249E+02 0.341E+02   0.845E-02 0.459E-03 -.764E-02
   -.971E+02 -.302E+03 0.344E+03   0.129E+03 0.327E+03 -.378E+03   -.316E+02 -.248E+02 0.340E+02   0.172E-01 0.485E-02 -.703E-02
   -.302E+03 0.971E+02 0.344E+03   0.327E+03 -.129E+03 -.378E+03   -.249E+02 0.316E+02 0.341E+02   0.469E-03 -.844E-02 -.764E-02
   -.302E+03 0.971E+02 0.344E+03   0.327E+03 -.129E+03 -.378E+03   -.248E+02 0.316E+02 0.340E+02   0.488E-02 -.172E-01 -.702E-02
   0.302E+03 -.971E+02 0.344E+03   -.327E+03 0.129E+03 -.378E+03   0.249E+02 -.316E+02 0.341E+02   -.451E-03 0.842E-02 -.764E-02
   0.302E+03 -.971E+02 0.344E+03   -.327E+03 0.129E+03 -.378E+03   0.248E+02 -.316E+02 0.340E+02   -.486E-02 0.172E-01 -.703E-02
 -----------------------------------------------------------------------------------------------
   -.423E-03 0.421E-03 -.108E+03   -.114E-12 0.426E-12 -.398E-12   0.711E-14 0.711E-14 0.108E+03   0.209E-03 -.208E-03 -.333E-01
 
 
 POSITION                                       TOTAL-FORCE (eV/Angst)
 -----------------------------------------------------------------------------------
      0.00000      0.00000      8.65963        -0.000000     -0.000000     -0.566757
      8.46683      8.46683      8.65963        -0.000000     -0.000000     -0.566757
      3.57204     14.78167      8.96708        -0.019767      0.000082     -0.009887
     12.03886      6.31485      8.96708        -0.017453     -0.000791     -0.009928
     13.36161      2.15198      8.96708         0.019767     -0.000082     -0.009887
      4.89479     10.61880      8.96708         0.017453      0.000791     -0.009928
     10.61880     12.03886      8.96708        -0.000082     -0.019767     -0.009887
      2.15198      3.57204      8.96708         0.000791     -0.017453     -0.009928
      6.31485      4.89479      8.96708         0.000082      0.019767     -0.009887
     14.78167     13.36161      8.96708        -0.000791      0.017453     -0.009928
     11.47101      4.02512      7.00579        -0.005792     -0.004083     -0.020435
      3.00419     12.49195      7.00579        -0.005992     -0.003834     -0.021466
      5.46264     12.90853      7.00579         0.005792      0.004083     -0.020435
     13.92947      4.44170      7.00579         0.005992      0.003834     -0.021466
      4.44170      3.00419      7.00579         0.004083     -0.005792     -0.020435
     12.90853     11.47101      7.00579         0.003834     -0.005992     -0.021466
     12.49195     13.92947      7.00579        -0.004083      0.005792     -0.020435
      4.02512      5.46264      7.00579        -0.003834      0.005992     -0.021466
     11.44308      3.93971      8.75554        -0.010938      0.014721      0.016946
      2.97626     12.40653      8.75554        -0.010773      0.013417      0.017664
      5.49057     12.99394      8.75554         0.010938     -0.014721      0.016946
     13.95739      4.52712      8.75554         0.010773     -0.013417      0.017664
      4.52712      2.97626      8.75554        -0.014721     -0.010938      0.016946
     12.99394     11.44308      8.75554        -0.013417     -0.010773      0.017664
     12.40653     13.95739      8.75554         0.014721      0.010938      0.016946
      3.93971      5.49057      8.75554         0.013417      0.010773      0.017664
      3.85000     16.12832      7.02619         0.023029      0.014661     -0.003388
     12.31683      7.66149      7.02619         0.032558      0.047476     -0.000834
     13.08365      0.80533      7.02619        -0.023029     -0.014661     -0.003388
      4.61682      9.27216      7.02619        -0.032558     -0.047476     -0.000834
      9.27216     12.31683      7.02619        -0.014661      0.023029     -0.003388
      0.80533      3.85000      7.02619        -0.047476      0.032558     -0.000834
      7.66149      4.61682      7.02619         0.014661     -0.023029     -0.003388
     16.12832     13.08365      7.02619         0.047476     -0.032558     -0.000834
      3.74769     14.81941      6.03292         0.047099     -0.006104     -0.027672
     12.21452      6.35258      6.03292         0.040513     -0.009704     -0.031545
     13.18596      2.11424      6.03292        -0.047099      0.006104     -0.027672
      4.71913     10.58107      6.03292        -0.040513      0.009704     -0.031545
     10.58107     12.21452      6.03292         0.006104      0.047099     -0.027672
      2.11424      3.74769      6.03292         0.009704      0.040513     -0.031545
      6.35258      4.71913      6.03292        -0.006104     -0.047099     -0.027672
     14.81941     13.18596      6.03292        -0.009704     -0.040513     -0.031545
     10.26058      6.27454      7.75442        -0.333756      0.767770      0.318456
      1.79376     14.74137      7.75442        -0.349558      0.734469      0.283143
      6.67307     10.65911      7.75442         0.333756     -0.767770      0.318456
     15.13989      2.19228      7.75442         0.349558     -0.734469      0.283143
      2.19228      1.79376      7.75442        -0.767770     -0.333756      0.318456
     10.65911     10.26058      7.75442        -0.734469     -0.349558      0.283143
     14.74137     15.13989      7.75442         0.767770      0.333756      0.318456
      6.27454      6.67307      7.75442         0.734469      0.349558      0.283143
      3.26721     14.39191      7.98426         0.162568     -0.026310     -0.036956
     11.73404      5.92508      7.98426         0.163570     -0.018639     -0.036658
     13.66644      2.54174      7.98426        -0.162568      0.026310     -0.036956
      5.19962     11.00857      7.98426        -0.163570      0.018639     -0.036658
     11.00857     11.73404      7.98426         0.026310      0.162568     -0.036956
      2.54174      3.26721      7.98426         0.018639      0.163570     -0.036658
      5.92508      5.19962      7.98426        -0.026310     -0.162568     -0.036956
     14.39191     13.66644      7.98426        -0.018639     -0.163570     -0.036658
     11.96005      4.41798      7.90793        -0.006546      0.006495     -0.006881
      3.49322     12.88481      7.90793        -0.005693      0.010417     -0.005933
      4.97360     12.51567      7.90793         0.006546     -0.006495     -0.006881
     13.44043      4.04884      7.90793         0.005693     -0.010417     -0.005933
      4.04884      3.49322      7.90793        -0.006495     -0.006546     -0.006881
     12.51567     11.96005      7.90793        -0.010417     -0.005693     -0.005933
     12.88481     13.44043      7.90793         0.006495      0.006546     -0.006881
      4.41798      4.97360      7.90793         0.010417      0.005693     -0.005933
      4.03202     15.12192      6.96756        -0.093846     -0.037032     -0.024743
     12.49885      6.65510      6.96756        -0.098162     -0.049923     -0.019970
     12.90163      1.81173      6.96756         0.093846      0.037032     -0.024743
      4.43481     10.27855      6.96756         0.098162      0.049923     -0.019970
     10.27855     12.49885      6.96756         0.037032     -0.093846     -0.024743
      1.81173      4.03202      6.96756         0.049923     -0.098162     -0.019970
      6.65510      4.43481      6.96756        -0.037032      0.093846     -0.024743
     15.12192     12.90163      6.96756        -0.049923      0.098162     -0.019970
      1.43544     15.87141      8.40232         1.354789     -1.234163      0.090827
      9.90226      7.40459      8.40232         1.400236     -1.201064      0.034286
     15.49822      1.06224      8.40232        -1.354789      1.234163      0.090827
      7.03139      9.52907      8.40232        -1.400236      1.201064      0.034286
      9.52907      9.90226      8.40232         1.234163      1.354789      0.090827
      1.06224      1.43544      8.40232         1.201064      1.400236      0.034286
      7.40459      7.03139      8.40232        -1.234163     -1.354789      0.090827
     15.87141     15.49822      8.40232        -1.201064     -1.400236      0.034286
      9.51770      5.68950      6.97763        -0.018308     -0.206652     -0.109709
      1.05088     14.15632      6.97763        -0.026365     -0.214313     -0.111939
      7.41595     11.24415      6.97763         0.018308      0.206652     -0.109709
     15.88277      2.77733      6.97763         0.026365      0.214313     -0.111939
      2.77733      1.05088      6.97763         0.206652     -0.018308     -0.109709
     11.24415      9.51770      6.97763         0.214313     -0.026365     -0.111939
     14.15632     15.88277      6.97763        -0.206652      0.018308     -0.109709
      5.68950      7.41595      6.97763        -0.214313      0.026365     -0.111939
 -----------------------------------------------------------------------------------
    total drift:                               -0.000213      0.000213      0.221800


--------------------------------------------------------------------------------------------------------



  FREE ENERGIE OF THE ION-ELECTRON SYSTEM (eV)
  ---------------------------------------------------
  free  energy   TOTEN  =      -554.57048833 eV

  energy  without entropy=     -554.61960975  energy(sigma->0) =     -554.58686214
 


--------------------------------------------------------------------------------------------------------


    POTLOK:  cpu time      0.1937: real time      0.1989


--------------------------------------------------------------------------------------------------------


     LOOP+:  cpu time   2673.5216: real time   2718.9680
    4ORBIT:  cpu time      0.0000: real time      0.0000



 total charge

# of ion       s       p       d       tot
------------------------------------------
    1        0.367   6.424   4.111  10.903
    2        0.367   6.424   4.111  10.903
    3        0.651   0.043   0.000   0.695
    4        0.652   0.043   0.000   0.695
    5        0.651   0.043   0.000   0.695
    6        0.652   0.043   0.000   0.695
    7        0.651   0.043   0.000   0.695
    8        0.652   0.043   0.000   0.695
    9        0.651   0.043   0.000   0.695
   10        0.652   0.043   0.000   0.695
   11        0.643   0.045   0.000   0.688
   12        0.644   0.045   0.000   0.688
   13        0.643   0.045   0.000   0.688
   14        0.644   0.045   0.000   0.688
   15        0.643   0.045   0.000   0.688
   16        0.644   0.045   0.000   0.688
   17        0.643   0.045   0.000   0.688
   18        0.644   0.045   0.000   0.688
   19        0.646   0.042   0.000   0.688
   20        0.646   0.042   0.000   0.688
   21        0.646   0.042   0.000   0.688
   22        0.646   0.042   0.000   0.688
   23        0.646   0.042   0.000   0.688
   24        0.646   0.042   0.000   0.688
   25        0.646   0.042   0.000   0.688
   26        0.646   0.042   0.000   0.688
   27        0.630   0.084   0.000   0.714
   28        0.630   0.084   0.000   0.714
   29        0.630   0.084   0.000   0.714
   30        0.630   0.084   0.000   0.714
   31        0.630   0.084   0.000   0.714
   32        0.630   0.084   0.000   0.714
   33        0.630   0.084   0.000   0.714
   34        0.630   0.084   0.000   0.714
   35        0.645   0.080   0.000   0.725
   36        0.645   0.080   0.000   0.725
   37        0.645   0.080   0.000   0.725
   38        0.645   0.080   0.000   0.725
   39        0.645   0.080   0.000   0.725
   40        0.645   0.080   0.000   0.725
   41        0.645   0.080   0.000   0.725
   42        0.645   0.080   0.000   0.725
   43        0.874   1.677   0.000   2.551
   44        0.875   1.676   0.000   2.551
   45        0.874   1.677   0.000   2.551
   46        0.875   1.676   0.000   2.551
   47        0.874   1.677   0.000   2.551
   48        0.875   1.676   0.000   2.551
   49        0.874   1.677   0.000   2.551
   50        0.875   1.676   0.000   2.551
   51        0.833   1.732   0.000   2.565
   52        0.833   1.733   0.000   2.566
   53        0.833   1.732   0.000   2.565
   54        0.833   1.733   0.000   2.566
   55        0.833   1.732   0.000   2.565
   56        0.833   1.733   0.000   2.566
   57        0.833   1.732   0.000   2.565
   58        0.833   1.733   0.000   2.566
   59        0.838   1.779   0.000   2.617
   60        0.838   1.780   0.000   2.617
   61        0.838   1.779   0.000   2.617
   62        0.838   1.780   0.000   2.617
   63        0.838   1.779   0.000   2.617
   64        0.838   1.780   0.000   2.617
   65        0.838   1.779   0.000   2.617
   66        0.838   1.780   0.000   2.617
   67        1.230   2.693   0.000   3.922
   68        1.230   2.691   0.000   3.921
   69        1.230   2.693   0.000   3.922
   70        1.230   2.691   0.000   3.921
   71        1.230   2.693   0.000   3.922
   72        1.230   2.691   0.000   3.921
   73        1.230   2.693   0.000   3.922
   74        1.230   2.691   0.000   3.921
   75        1.573   3.555   0.000   5.128
   76        1.573   3.555   0.000   5.128
   77        1.573   3.555   0.000   5.128
   78        1.573   3.555   0.000   5.128
   79        1.573   3.555   0.000   5.128
   80        1.573   3.555   0.000   5.128
   81        1.573   3.555   0.000   5.128
   82        1.573   3.555   0.000   5.128
   83        1.590   3.549   0.000   5.139
   84        1.590   3.548   0.000   5.139
   85        1.590   3.549   0.000   5.139
   86        1.590   3.548   0.000   5.139
   87        1.590   3.549   0.000   5.139
   88        1.590   3.548   0.000   5.139
   89        1.590   3.549   0.000   5.139
   90        1.590   3.548   0.000   5.139
--------------------------------------------------
tot         81.967 135.078   8.222 225.267



 magnetization (x)

# of ion       s       p       d       tot
------------------------------------------
    1        0.089   0.024   2.435   2.547
    2       -0.089  -0.024  -2.435  -2.547
    3       -0.000  -0.000   0.000  -0.000
    4        0.000   0.000   0.000   0.000
    5       -0.000  -0.000   0.000  -0.000
    6        0.000   0.000   0.000   0.000
    7        0.000   0.000   0.000   0.000
    8       -0.000  -0.000   0.000  -0.000
    9        0.000   0.000   0.000   0.000
   10       -0.000  -0.000   0.000  -0.000
   11       -0.000  -0.000   0.000  -0.000
   12        0.000   0.000   0.000   0.000
   13       -0.000  -0.000   0.000  -0.000
   14        0.000   0.000   0.000   0.000
   15        0.000   0.000   0.000   0.000
   16       -0.000  -0.000   0.000  -0.000
   17        0.000   0.000   0.000   0.000
   18       -0.000  -0.000   0.000  -0.000
   19       -0.000   0.000   0.000  -0.000
   20        0.000  -0.000   0.000   0.000
   21       -0.000   0.000   0.000  -0.000
   22        0.000  -0.000   0.000   0.000
   23        0.000  -0.000   0.000   0.000
   24       -0.000   0.000   0.000  -0.000
   25        0.000  -0.000   0.000   0.000
   26       -0.000   0.000   0.000  -0.000
   27       -0.000  -0.001   0.000  -0.001
   28        0.000   0.001   0.000   0.001
   29       -0.000  -0.001   0.000  -0.001
   30        0.000   0.001   0.000   0.001
   31        0.000   0.001   0.000   0.001
   32       -0.000  -0.001   0.000  -0.001
   33        0.000   0.001   0.000   0.001
   34       -0.000  -0.001   0.000  -0.001
   35        0.000  -0.001   0.000  -0.001
   36       -0.000   0.001   0.000   0.000
   37        0.000  -0.001   0.000  -0.001
   38       -0.000   0.001   0.000   0.000
   39       -0.000   0.001   0.000   0.001
   40        0.000  -0.001   0.000  -0.000
   41       -0.000   0.001   0.000   0.001
   42        0.000  -0.001   0.000  -0.000
   43       -0.000  -0.002   0.000  -0.002
   44        0.001   0.001   0.000   0.002
   45       -0.000  -0.002   0.000  -0.002
   46        0.001   0.001   0.000   0.002
   47        0.000   0.002   0.000   0.002
   48       -0.001  -0.001   0.000  -0.002
   49        0.000   0.002   0.000   0.002
   50       -0.001  -0.001   0.000  -0.002
   51       -0.000  -0.011   0.000  -0.011
   52        0.000   0.010   0.000   0.011
   53       -0.000  -0.011   0.000  -0.011
   54        0.000   0.010   0.000   0.011
   55        0.000   0.011   0.000   0.011
   56       -0.000  -0.010   0.000  -0.011
   57        0.000   0.011   0.000   0.011
   58       -0.000  -0.010   0.000  -0.011
   59        0.000   0.001   0.000   0.001
   60       -0.000  -0.001   0.000  -0.001
   61        0.000   0.001   0.000   0.001
   62       -0.000  -0.001   0.000  -0.001
   63       -0.000  -0.001   0.000  -0.001
   64        0.000   0.001   0.000   0.001
   65       -0.000  -0.001   0.000  -0.001
   66        0.000   0.001   0.000   0.001
   67       -0.004  -0.052   0.000  -0.056
   68        0.004   0.054   0.000   0.058
   69       -0.004  -0.052   0.000  -0.056
   70        0.004   0.054   0.000   0.058
   71        0.004   0.052   0.000   0.056
   72       -0.004  -0.054   0.000  -0.058
   73        0.004   0.052   0.000   0.056
   74       -0.004  -0.054   0.000  -0.058
   75       -0.002  -0.061   0.000  -0.063
   76        0.002   0.064   0.000   0.066
   77       -0.002  -0.061   0.000  -0.063
   78        0.002   0.064   0.000   0.066
   79        0.002   0.061   0.000   0.063
   80       -0.002  -0.064   0.000  -0.066
   81        0.002   0.061   0.000   0.063
   82       -0.002  -0.064   0.000  -0.066
   83        0.000   0.025   0.000   0.026
   84       -0.000  -0.028   0.000  -0.028
   85        0.000   0.025   0.000   0.026
   86       -0.000  -0.028   0.000  -0.028
   87       -0.000  -0.025   0.000  -0.026
   88        0.000   0.028   0.000   0.028
   89       -0.000  -0.025   0.000  -0.026
   90        0.000   0.028   0.000   0.028
--------------------------------------------------
tot          0.000   0.000   0.000   0.000
 

 total amount of memory used by VASP MPI-rank0  1804235. kBytes
=======================================================================

   base      :      30000. kBytes
   nonlr-proj:       3122. kBytes
   fftplans  :      10892. kBytes
   grid      :      28901. kBytes
   one-center:        248. kBytes
   wavefun   :    1731072. kBytes
 
  
  
 General timing and accounting informations for this job:
 ========================================================
  
                  Total CPU time used (sec):     2924.858
                            User time (sec):     2887.878
                          System time (sec):       36.980
                         Elapsed time (sec):     2975.743
  
                   Maximum memory used (kb):     2312900.
                   Average memory used (kb):          N/A
  
                          Minor page faults:       667867
                          Major page faults:          124
                 Voluntary context switches:       282494
