 vasp.6.3.2 27Jun22 (build Aug 02 2025 14:55:03) complex                        
  
 executed on             LinuxIFC date 2026.01.18  13:45:26
 running on   48 total cores
 distrk:  each k-point on   48 cores,    1 groups
 distr:  one band on NCORE=  12 cores,    4 groups


--------------------------------------------------------------------------------------------------------


 INCAR:
   PREC = Normal
   ENCUT = 500
   IBRION = -1
   ISPIN = 2
   MAGMOM = 5 -5 4*1 4*-1 4*1 4*-1 4*1 4*-1 4*1 4*-1 4*1 4*-1 4*1 4*-1 4*1 4*-1 4*1 4*-1 4*1 4*-1 4*1 4*-1 4*1 4*-1 4*1 4*-1 4*1 4*-1 4*1 4*-1 4*1 4*-1 4*1 4*-1 4*1 4*-1 4*1 4*-1 4*1 4*-1 4*1 4*-1 4*1 4*-1 4*1 4*-1 4*1 4*-1 4*1 4*-1 4*1 4*-1 4*1 4*-1 4*1 4*-1 4*1 4*-1 4*1 4*-1 4*1 4*-1 4*1 4*-1 4*1 4*-1 4*1 4*-1 4*1 4*-1 4*1 4*-1 4*1 4*-1 4*1 4*-1 4*1 4*-1 4*1 4*-1
   NSW = 0
   NELM = 200
   ISIF = 2
   EDIFF = 1E-5
   EDIFFG = -0.01
   ALGO = Fast
   ISTART = 1
   ICHARG = 11
   LREAL = Auto
   LWAVE = .F.
   LCHARG = .F.
   LVTOT = .T.
   NPAR = 4
   AMIX = 0.2
   BMIX = 0.0001
   AMIX_MAG = 0.8
   BMIX_MAG = 0.0001
   LDAU = .TRUE.
   LDAUTYPE = 2
   LDAUL = 2 -1 -1 -1 -1 -1
   LDAUU = 3.0 0 0 0 0 0
   LDAUJ = 1.0 0 0 0 0 0
   LMAXMIX = 4
   LORBIT = 11

 POTCAR:    PAW_PBE Cr_pv 02Aug2007               
 POTCAR:    PAW_PBE O 08Apr2002                   
 POTCAR:    PAW_PBE C 08Apr2002                   
 POTCAR:    PAW_PBE H 15Jun2001                   
 WARNING: For LVTOT=.TRUE., VASP.5.x writes the TOTAL local potential to the
     file LOCPOT. If you want only the Hartree contributions, use LVHAR=.TRUE.
     instead. 

 POTCAR:    PAW_PBE Cr_pv 02Aug2007               
   SHA256 =  c9a7df34d3cdbacf1090e328ef39c0b420964e11c23f63548d1ac9dd218cdba0 Cr_pv/POTCAR          
   COPYR  = (c) Copyright 02Aug2007 Georg Kresse                                                    
   COPYR  = This file is part of the software VASP. Any use, copying, and all other rights are regul
   COPYR  = If you do not have a valid VASP license, you may not use, copy or distribute this file. 
   VRHFIN =Cr : p6d5s1                                                                              
   LEXCH  = PE                                                                                      
   EATOM  =  1647.9177 eV,  121.1185 Ry                                                             
                                                                                                    
   TITEL  = PAW_PBE Cr_pv 02Aug2007                                                                 
   LULTRA =        F    use ultrasoft PP ?                                                          
   IUNSCR =        1    unscreen: 0-lin 1-nonlin 2-no                                               
   RPACOR =    2.080    partial core radius                                                         
   POMASS =   51.996; ZVAL   =   12.000    mass and valenz                                          
   RCORE  =    2.300    outmost cutoff radius                                                       
   RWIGS  =    2.500; RWIGS  =    1.323    wigner-seitz radius (au A)                               
   ENMAX  =  265.681; ENMIN  =  199.261 eV                                                          
   ICORE  =        3    local potential                                                             
   LCOR   =        T    correct aug charges                                                         
   LPAW   =        T    paw PP                                                                      
   EAUG   =  519.424                                                                                
   DEXC   =    0.000                                                                                
   RMAX   =    2.356    core radius for proj-oper                                                   
   RAUG   =    1.300    factor for augmentation sphere                                              
   RDEP   =    2.447    radius for radial grids                                                     
   RDEPT  =    1.882    core radius for aug-charge                                                  
                                                                                                    
   Atomic configuration                                                                             
    8 entries                                                                                       
     n  l   j            E        occ.                                                              
     1  0  0.50     -5880.4963   2.0000                                                             
     2  0  0.50      -667.0865   2.0000                                                             
     2  1  1.50      -560.6250   6.0000                                                             
     3  0  0.50       -73.9860   2.0000                                                             
     3  1  1.50       -45.4378   6.0000                                                             
     3  2  2.50        -2.9137   5.0000                                                             
     4  0  0.50        -4.0071   1.0000                                                             
     4  3  2.50        -1.3606   0.0000                                                             
   Description                                                                                      
     l       E           TYP  RCUT    TYP  RCUT                                                     
     1    -45.4377911     23  2.000                                                                 
     1      1.3605826     23  2.000                                                                 
     2     -2.9136672     23  2.300                                                                 
     2     -4.2742498     23  2.300                                                                 
     0     -4.0071320     23  2.300                                                                 
     0      9.4498803     23  2.300                                                                 
     3      2.7211652     23  2.300                                                                 
  local pseudopotential read in
  partial core-charges read in
  partial kinetic energy density read in
  atomic valenz-charges read in
  non local Contribution for L=           1  read in
    real space projection operators read in
  non local Contribution for L=           1  read in
    real space projection operators read in
  non local Contribution for L=           2  read in
    real space projection operators read in
  non local Contribution for L=           2  read in
    real space projection operators read in
  non local Contribution for L=           0  read in
    real space projection operators read in
  non local Contribution for L=           0  read in
    real space projection operators read in
    PAW grid and wavefunctions read in
 
   number of l-projection  operators is LMAX  =           6
   number of lm-projection operators is LMMAX =          18
 
 POTCAR:    PAW_PBE O 08Apr2002                   
   SHA256 =  818f92134a0a090dccd8ba1447fa70422a3b330e708bb4f08108d8ae51209ddf O/POTCAR              
   COPYR  = (c) Copyright 08Apr2002 Georg Kresse                                                    
   COPYR  = This file is part of the software VASP. Any use, copying, and all other rights are regul
   COPYR  = If you do not have a valid VASP license, you may not use, copy or distribute this file. 
   VRHFIN =O: s2p4                                                                                  
   LEXCH  = PE                                                                                      
   EATOM  =   432.3788 eV,   31.7789 Ry                                                             
                                                                                                    
   TITEL  = PAW_PBE O 08Apr2002                                                                     
   LULTRA =        F    use ultrasoft PP ?                                                          
   IUNSCR =        1    unscreen: 0-lin 1-nonlin 2-no                                               
   RPACOR =    1.200    partial core radius                                                         
   POMASS =   16.000; ZVAL   =    6.000    mass and valenz                                          
   RCORE  =    1.520    outmost cutoff radius                                                       
   RWIGS  =    1.550; RWIGS  =    0.820    wigner-seitz radius (au A)                               
   ENMAX  =  400.000; ENMIN  =  300.000 eV                                                          
   ICORE  =        2    local potential                                                             
   LCOR   =        T    correct aug charges                                                         
   LPAW   =        T    paw PP                                                                      
   EAUG   =  605.392                                                                                
   DEXC   =    0.000                                                                                
   RMAX   =    1.553    core radius for proj-oper                                                   
   RAUG   =    1.300    factor for augmentation sphere                                              
   RDEP   =    1.550    radius for radial grids                                                     
   RDEPT  =    1.329    core radius for aug-charge                                                  
                                                                                                    
   Atomic configuration                                                                             
    4 entries                                                                                       
     n  l   j            E        occ.                                                              
     1  0  0.50      -514.6923   2.0000                                                             
     2  0  0.50       -23.9615   2.0000                                                             
     2  1  0.50        -9.0305   4.0000                                                             
     3  2  1.50        -9.5241   0.0000                                                             
   Description                                                                                      
     l       E           TYP  RCUT    TYP  RCUT                                                     
     0    -23.9615318     23  1.200                                                                 
     0     -9.5240782     23  1.200                                                                 
     1     -9.0304911     23  1.520                                                                 
     1      8.1634956     23  1.520                                                                 
     2     -9.5240782      7  1.500                                                                 
  local pseudopotential read in
  partial core-charges read in
  partial kinetic energy density read in
  kinetic energy density of atom read in
  atomic valenz-charges read in
  non local Contribution for L=           0  read in
    real space projection operators read in
  non local Contribution for L=           0  read in
    real space projection operators read in
  non local Contribution for L=           1  read in
    real space projection operators read in
  non local Contribution for L=           1  read in
    real space projection operators read in
    PAW grid and wavefunctions read in
 
   number of l-projection  operators is LMAX  =           4
   number of lm-projection operators is LMMAX =           8
 
 POTCAR:    PAW_PBE C 08Apr2002                   
   SHA256 =  253f7b50bb8d59471dbedb8285d89021f4a42ed1a2c5d38a03a736e69125dd95 C/POTCAR              
   COPYR  = (c) Copyright 08Apr2002 Georg Kresse                                                    
   COPYR  = This file is part of the software VASP. Any use, copying, and all other rights are regul
   COPYR  = If you do not have a valid VASP license, you may not use, copy or distribute this file. 
   VRHFIN =C: s2p2                                                                                  
   LEXCH  = PE                                                                                      
   EATOM  =   147.1560 eV,   10.8157 Ry                                                             
                                                                                                    
   TITEL  = PAW_PBE C 08Apr2002                                                                     
   LULTRA =        F    use ultrasoft PP ?                                                          
   IUNSCR =        1    unscreen: 0-lin 1-nonlin 2-no                                               
   RPACOR =    1.200    partial core radius                                                         
   POMASS =   12.011; ZVAL   =    4.000    mass and valenz                                          
   RCORE  =    1.500    outmost cutoff radius                                                       
   RWIGS  =    1.630; RWIGS  =    0.863    wigner-seitz radius (au A)                               
   ENMAX  =  400.000; ENMIN  =  300.000 eV                                                          
   ICORE  =        2    local potential                                                             
   LCOR   =        T    correct aug charges                                                         
   LPAW   =        T    paw PP                                                                      
   EAUG   =  644.873                                                                                
   DEXC   =    0.000                                                                                
   RMAX   =    1.529    core radius for proj-oper                                                   
   RAUG   =    1.300    factor for augmentation sphere                                              
   RDEP   =    1.501    radius for radial grids                                                     
   RDEPT  =    1.300    core radius for aug-charge                                                  
                                                                                                    
   Atomic configuration                                                                             
    4 entries                                                                                       
     n  l   j            E        occ.                                                              
     1  0  0.50      -273.3789   2.0000                                                             
     2  0  0.50       -13.7508   2.0000                                                             
     2  1  0.50        -5.2854   2.0000                                                             
     3  2  1.50        -5.4423   0.0000                                                             
   Description                                                                                      
     l       E           TYP  RCUT    TYP  RCUT                                                     
     0    -13.7508458     23  1.200                                                                 
     0     -8.2022199     23  1.200                                                                 
     1     -5.2854383     23  1.500                                                                 
     1     34.0145650     23  1.500                                                                 
     2     -5.4423304      7  1.500                                                                 
  local pseudopotential read in
  partial core-charges read in
  partial kinetic energy density read in
  atomic valenz-charges read in
  non local Contribution for L=           0  read in
    real space projection operators read in
  non local Contribution for L=           0  read in
    real space projection operators read in
  non local Contribution for L=           1  read in
    real space projection operators read in
  non local Contribution for L=           1  read in
    real space projection operators read in
    PAW grid and wavefunctions read in
 
   number of l-projection  operators is LMAX  =           4
   number of lm-projection operators is LMMAX =           8
 
 POTCAR:    PAW_PBE H 15Jun2001                   
   SHA256 =  030f79b5d3ab3cf0e668861823c8fb652ff669f3e15e46930bd03bfd63a607b6 H/POTCAR              
   COPYR  = (c) Copyright 15Jun2001 Georg Kresse                                                    
   COPYR  = This file is part of the software VASP. Any use, copying, and all other rights are regul
   COPYR  = If you do not have a valid VASP license, you may not use, copy or distribute this file. 
   VRHFIN =H: ultrasoft test                                                                        
   LEXCH  = PE                                                                                      
   EATOM  =    12.4884 eV,    0.9179 Ry                                                             
                                                                                                    
   TITEL  = PAW_PBE H 15Jun2001                                                                     
   LULTRA =        F    use ultrasoft PP ?                                                          
   IUNSCR =        0    unscreen: 0-lin 1-nonlin 2-no                                               
   RPACOR =    0.000    partial core radius                                                         
   POMASS =    1.000; ZVAL   =    1.000    mass and valenz                                          
   RCORE  =    1.100    outmost cutoff radius                                                       
   RWIGS  =    0.700; RWIGS  =    0.370    wigner-seitz radius (au A)                               
   ENMAX  =  250.000; ENMIN  =  200.000 eV                                                          
   RCLOC  =    0.701    cutoff for local pot                                                        
   LCOR   =        T    correct aug charges                                                         
   LPAW   =        T    paw PP                                                                      
   EAUG   =  400.000                                                                                
   RMAX   =    1.123    core radius for proj-oper                                                   
   RAUG   =    1.200    factor for augmentation sphere                                              
   RDEP   =    1.112    radius for radial grids                                                     
   RDEPT  =    0.926    core radius for aug-charge                                                  
                                                                                                    
   Atomic configuration                                                                             
    2 entries                                                                                       
     n  l   j            E        occ.                                                              
     1  0  0.50        -6.4927   1.0000                                                             
     2  1  0.50        -3.4015   0.0000                                                             
   Description                                                                                      
     l       E           TYP  RCUT    TYP  RCUT                                                     
     0     -6.4927494     23  1.100                                                                 
     0      6.8029130     23  1.100                                                                 
     1     -4.0817478     23  1.100                                                                 
  local pseudopotential read in
  atomic valenz-charges read in
  non local Contribution for L=           0  read in
    real space projection operators read in
  non local Contribution for L=           0  read in
    real space projection operators read in
  non local Contribution for L=           1  read in
    real space projection operators read in
    PAW grid and wavefunctions read in
 
   number of l-projection  operators is LMAX  =           3
   number of lm-projection operators is LMMAX =           5
 
 Optimization of the real space projectors (new method)

 maximal supplied QI-value         = 16.25
 optimisation between [QCUT,QGAM] = [ 11.38, 22.75] = [ 36.24,144.96] Ry 
 Optimized for a Real-space Cutoff    1.31 Angstroem

   l    n(q)    QCUT    max X(q) W(low)/X(q) W(high)/X(q)  e(spline) 
   1      8    11.376     3.262    0.15E-03    0.36E-03    0.86E-07
   1      8    11.376     5.741    0.39E-03    0.84E-03    0.21E-06
   2      8    11.376    60.438    0.39E-03    0.55E-03    0.20E-06
   2      8    11.376    55.380    0.40E-03    0.57E-03    0.20E-06
   0      9    11.376    80.273    0.17E-03    0.16E-03    0.48E-07
   0      9    11.376    36.654    0.15E-03    0.14E-03    0.43E-07
 Optimization of the real space projectors (new method)

 maximal supplied QI-value         = 24.76
 optimisation between [QCUT,QGAM] = [ 11.39, 22.77] = [ 36.31,145.25] Ry 
 Optimized for a Real-space Cutoff    1.00 Angstroem

   l    n(q)    QCUT    max X(q) W(low)/X(q) W(high)/X(q)  e(spline) 
   0      7    11.387    20.381    0.39E-03    0.13E-02    0.15E-06
   0      7    11.387    15.268    0.42E-03    0.14E-02    0.17E-06
   1      6    11.387     5.964    0.41E-03    0.11E-02    0.17E-06
   1      6    11.387     5.382    0.39E-03    0.87E-03    0.15E-06
 Optimization of the real space projectors (new method)

 maximal supplied QI-value         = 25.13
 optimisation between [QCUT,QGAM] = [ 11.31, 22.87] = [ 35.82,146.48] Ry 
 Optimized for a Real-space Cutoff    1.00 Angstroem

   l    n(q)    QCUT    max X(q) W(low)/X(q) W(high)/X(q)  e(spline) 
   0      7    11.310   115.676    0.43E-03    0.13E-02    0.19E-06
   0      7    11.310    87.132    0.43E-03    0.13E-02    0.18E-06
   1      6    11.310     4.429    0.42E-03    0.74E-03    0.11E-06
   1      6    11.310     2.733    0.34E-03    0.55E-03    0.92E-07
 Optimization of the real space projectors (new method)

 maximal supplied QI-value         = 34.20
 optimisation between [QCUT,QGAM] = [ 11.29, 22.57] = [ 35.68,142.71] Ry 
 Optimized for a Real-space Cutoff    1.16 Angstroem

   l    n(q)    QCUT    max X(q) W(low)/X(q) W(high)/X(q)  e(spline) 
   0      8    11.287    19.460    0.40E-03    0.73E-03    0.16E-06
   0      8    11.287    12.209    0.38E-03    0.70E-03    0.15E-06
   1      7    11.287     4.655    0.22E-03    0.25E-04    0.22E-06
  PAW_PBE Cr_pv 02Aug2007               :
 energy of atom  1       EATOM=-1647.9177
 kinetic energy error for atom=    0.0061 (will be added to EATOM!!)
  PAW_PBE O 08Apr2002                   :
 energy of atom  2       EATOM= -432.3788
 kinetic energy error for atom=    0.0224 (will be added to EATOM!!)
  PAW_PBE C 08Apr2002                   :
 energy of atom  3       EATOM= -147.1560
 kinetic energy error for atom=    0.0076 (will be added to EATOM!!)
  PAW_PBE H 15Jun2001                   :
 energy of atom  4       EATOM=  -12.4884
 kinetic energy error for atom=    0.0020 (will be added to EATOM!!)
 
 
 POSCAR: Generated by VASPKIT code
  positions in cartesian coordinates
  No initial velocities read in
 exchange correlation table for  LEXCH =        8
   RHO(1)=    0.500       N(1)  =     2000
   RHO(2)=  100.500       N(2)  =     4000
 


--------------------------------------------------------------------------------------------------------


 ion  position               nearest neighbor table
   1  0.000  0.000  0.500-   9 1.82   4 1.82   6 1.82   7 1.82
   2  0.500  0.500  0.500-   3 1.82   5 1.82   8 1.82  10 1.82
   3  0.579  0.416  0.500-  19 1.37   2 1.82
   4  0.079  0.916  0.500-  20 1.37   1 1.82
   5  0.421  0.584  0.500-  21 1.37   2 1.82
   6  0.921  0.084  0.500-  22 1.37   1 1.82
   7  0.084  0.079  0.500-  23 1.37   1 1.82
   8  0.584  0.579  0.500-  24 1.37   2 1.82
   9  0.916  0.921  0.500-  25 1.37   1 1.82
  10  0.416  0.421  0.500-  26 1.37   2 1.82
  11  0.523  0.285  0.500-  19 1.22
  12  0.023  0.785  0.500-  20 1.22
  13  0.477  0.715  0.500-  21 1.22
  14  0.977  0.215  0.500-  22 1.22
  15  0.215  0.023  0.500-  23 1.22
  16  0.715  0.523  0.500-  24 1.22
  17  0.785  0.977  0.500-  25 1.22
  18  0.285  0.477  0.500-  26 1.22
  19  0.586  0.329  0.500-  11 1.22   3 1.37  27 1.49
  20  0.086  0.829  0.500-  12 1.22   4 1.37  28 1.49
  21  0.414  0.671  0.500-  13 1.22   5 1.37  29 1.49
  22  0.914  0.171  0.500-  14 1.22   6 1.37  30 1.49
  23  0.171  0.086  0.500-  15 1.22   7 1.37  31 1.49
  24  0.671  0.586  0.500-  16 1.22   8 1.37  32 1.49
  25  0.829  0.914  0.500-  17 1.22   9 1.37  33 1.49
  26  0.329  0.414  0.500-  18 1.22  10 1.37  34 1.49
  27  0.672  0.291  0.500-  36 1.40  45 1.41  19 1.49
  28  0.172  0.791  0.500-  35 1.40  46 1.41  20 1.49
  29  0.328  0.709  0.500-  38 1.40  43 1.41  21 1.49
  30  0.828  0.209  0.500-  37 1.40  44 1.41  22 1.49
  31  0.209  0.172  0.500-  40 1.40  49 1.41  23 1.49
  32  0.709  0.672  0.500-  39 1.40  50 1.41  24 1.49
  33  0.791  0.828  0.500-  42 1.40  47 1.41  25 1.49
  34  0.291  0.328  0.500-  41 1.40  48 1.41  26 1.49
  35  0.247  0.839  0.500-  51 1.08  43 1.39  28 1.40
  36  0.747  0.339  0.500-  52 1.08  44 1.39  27 1.40
  37  0.753  0.161  0.500-  53 1.08  45 1.39  30 1.40
  38  0.253  0.661  0.500-  54 1.08  46 1.39  29 1.40
  39  0.661  0.747  0.500-  55 1.08  47 1.39  32 1.40
  40  0.161  0.247  0.500-  56 1.08  48 1.39  31 1.40
  41  0.339  0.253  0.500-  57 1.08  49 1.39  34 1.40
  42  0.839  0.753  0.500-  58 1.08  50 1.39  33 1.40
  43  0.324  0.797  0.500-  59 1.09  35 1.39  29 1.41
  44  0.824  0.297  0.500-  60 1.09  36 1.39  30 1.41
  45  0.676  0.203  0.500-  61 1.09  37 1.39  27 1.41
  46  0.176  0.703  0.500-  62 1.09  38 1.39  28 1.41
  47  0.703  0.824  0.500-  63 1.09  39 1.39  33 1.41
  48  0.203  0.324  0.500-  64 1.09  40 1.39  34 1.41
  49  0.297  0.176  0.500-  65 1.09  41 1.39  31 1.41
  50  0.797  0.676  0.500-  66 1.09  42 1.39  32 1.41
  51  0.244  0.907  0.500-  35 1.08
  52  0.744  0.407  0.500-  36 1.08
  53  0.756  0.093  0.500-  37 1.08
  54  0.256  0.593  0.500-  38 1.08
  55  0.593  0.744  0.500-  39 1.08
  56  0.093  0.244  0.500-  40 1.08
  57  0.407  0.256  0.500-  41 1.08
  58  0.907  0.756  0.500-  42 1.08
  59  0.383  0.833  0.500-  43 1.09
  60  0.883  0.333  0.500-  44 1.09
  61  0.617  0.167  0.500-  45 1.09
  62  0.117  0.667  0.500-  46 1.09
  63  0.667  0.883  0.500-  47 1.09
  64  0.167  0.383  0.500-  48 1.09
  65  0.333  0.117  0.500-  49 1.09
  66  0.833  0.617  0.500-  50 1.09
 
  LATTYP: Found a simple tetragonal cell.
 ALAT       =    15.8307762146
 C/A-ratio  =     0.9475214479
  
  Lattice vectors:
  
 A1 = (  15.8307762146,   0.0000000000,   0.0000000000)
 A2 = (   0.0000000000,  15.8307762146,   0.0000000000)
 A3 = (   0.0000000000,   0.0000000000,  15.0000000000)


Analysis of symmetry for initial positions (statically):
=====================================================================
 Subroutine PRICEL returns following result:
 
  LATTYP: Found a simple tetragonal cell.
 ALAT       =    11.1940492128
 C/A-ratio  =     1.3399976822
  
  Lattice vectors:
  
 A1 = (   7.9153881070,  -7.9153881076,   0.0000000000)
 A2 = (   7.9153881070,   7.9153881070,   0.0000000000)
 A3 = (   0.0000000000,   0.0000000000,  15.0000000000)
 
   2 primitive cells build up your supercell.
 

 Routine SETGRP: Setting up the symmetry group for a 
 simple tetragonal supercell.


 Subroutine GETGRP returns: Found  8 space group operations
 (whereof  8 operations were pure point group operations)
 out of a pool of 16 trial point group operations.


The static configuration has the point symmetry C_4h.


Analysis of symmetry for dynamics (positions and initial velocities):
=====================================================================
 Subroutine PRICEL returns following result:
 
  LATTYP: Found a simple tetragonal cell.
 ALAT       =    11.1940492128
 C/A-ratio  =     1.3399976822
  
  Lattice vectors:
  
 A1 = (   7.9153881070,  -7.9153881076,   0.0000000000)
 A2 = (   7.9153881070,   7.9153881070,   0.0000000000)
 A3 = (   0.0000000000,   0.0000000000,  15.0000000000)
 
   2 primitive cells build up your supercell.
 

 Routine SETGRP: Setting up the symmetry group for a 
 simple tetragonal supercell.


 Subroutine GETGRP returns: Found  8 space group operations
 (whereof  8 operations were pure point group operations)
 out of a pool of 16 trial point group operations.


The dynamic configuration has the point symmetry C_4h.


Analysis of structural, dynamic, and magnetic symmetry:
=====================================================================
 Subroutine PRICEL returns:
 Original cell was already a primitive cell.
 

 Routine SETGRP: Setting up the symmetry group for a 
 simple tetragonal supercell.


 Subroutine GETGRP returns: Found  8 space group operations
 (whereof  4 operations were pure point group operations)
 out of a pool of 16 trial point group operations.


The overall configuration has the point symmetry C_2h.
 The point group associated with its full space group is C_4h.


 Subroutine INISYM returns: Found  8 space group operations
 (whereof  4 operations are pure point group operations),
 and found     1 'primitive' translations


----------------------------------------------------------------------------------------

                                     Primitive cell                                     

  volume of cell :    3759.2021

  direct lattice vectors                    reciprocal lattice vectors
    15.830776215  0.000000000  0.000000000     0.063168097 -0.000000000 -0.000000000
     0.000000000 15.830776215  0.000000000     0.000000000  0.063168097 -0.000000000
     0.000000000  0.000000000 15.000000000     0.000000000  0.000000000  0.066666667

  length of vectors
    15.830776215 15.830776215 15.000000000     0.063168097  0.063168097  0.066666667

  position of ions in fractional coordinates (direct lattice)
     0.000000000  0.000000000  0.500000000
     0.500000000  0.500000000  0.500000000
     0.578722391  0.415814333  0.500000000
     0.078722391  0.915814333  0.500000000
     0.421277609  0.584185667  0.500000000
     0.921277609  0.084185667  0.500000000
     0.084185667  0.078722391  0.500000000
     0.584185667  0.578722391  0.500000000
     0.915814333  0.921277609  0.500000000
     0.415814333  0.421277609  0.500000000
     0.522870024  0.284772436  0.500000000
     0.022870024  0.784772436  0.500000000
     0.477129976  0.715227564  0.500000000
     0.977129976  0.215227564  0.500000000
     0.215227564  0.022870024  0.500000000
     0.715227564  0.522870024  0.500000000
     0.784772436  0.977129976  0.500000000
     0.284772436  0.477129976  0.500000000
     0.585807537  0.329305515  0.500000000
     0.085807537  0.829305515  0.500000000
     0.414192463  0.670694485  0.500000000
     0.914192463  0.170694485  0.500000000
     0.170694485  0.085807537  0.500000000
     0.670694485  0.585807537  0.500000000
     0.829305515  0.914192463  0.500000000
     0.329305515  0.414192463  0.500000000
     0.671843073  0.291379234  0.500000000
     0.171843073  0.791379234  0.500000000
     0.328156927  0.708620766  0.500000000
     0.828156927  0.208620766  0.500000000
     0.208620766  0.171843073  0.500000000
     0.708620766  0.671843073  0.500000000
     0.791379234  0.828156927  0.500000000
     0.291379234  0.328156927  0.500000000
     0.246898616  0.838567968  0.500000000
     0.746898616  0.338567969  0.500000000
     0.753101384  0.161432031  0.500000000
     0.253101384  0.661432032  0.500000000
     0.661432032  0.746898616  0.500000000
     0.161432031  0.246898616  0.500000000
     0.338567969  0.253101384  0.500000000
     0.838567968  0.753101384  0.500000000
     0.324220877  0.797393839  0.500000000
     0.824220877  0.297393839  0.500000000
     0.675779123  0.202606161  0.500000000
     0.175779123  0.702606161  0.500000000
     0.702606161  0.824220877  0.500000000
     0.202606161  0.324220877  0.500000000
     0.297393839  0.175779123  0.500000000
     0.797393839  0.675779123  0.500000000
     0.243825983  0.906950583  0.500000000
     0.743825983  0.406950583  0.500000000
     0.756174017  0.093049417  0.500000000
     0.256174017  0.593049417  0.500000000
     0.593049417  0.743825983  0.500000000
     0.093049417  0.243825983  0.500000000
     0.406950583  0.256174017  0.500000000
     0.906950583  0.756174017  0.500000000
     0.382839119  0.833457653  0.500000000
     0.882839119  0.333457653  0.500000000
     0.617160881  0.166542347  0.500000000
     0.117160881  0.666542347  0.500000000
     0.666542347  0.882839119  0.500000000
     0.166542347  0.382839119  0.500000000
     0.333457653  0.117160881  0.500000000
     0.833457653  0.617160881  0.500000000

  ion indices of the primitive-cell ions
   primitive index   ion index
                 1           1
                 2           2
                 3           3
                 4           4
                 5           5
                 6           6
                 7           7
                 8           8
                 9           9
                10          10
                11          11
                12          12
                13          13
                14          14
                15          15
                16          16
                17          17
                18          18
                19          19
                20          20
                21          21
                22          22
                23          23
                24          24
                25          25
                26          26
                27          27
                28          28
                29          29
                30          30
                31          31
                32          32
                33          33
                34          34
                35          35
                36          36
                37          37
                38          38
                39          39
                40          40
                41          41
                42          42
                43          43
                44          44
                45          45
                46          46
                47          47
                48          48
                49          49
                50          50
                51          51
                52          52
                53          53
                54          54
                55          55
                56          56
                57          57
                58          58
                59          59
                60          60
                61          61
                62          62
                63          63
                64          64
                65          65
                66          66

----------------------------------------------------------------------------------------

 
 
 KPOINTS: K-Path Generated by VASPKIT.            

Interpolating k-points between supplied coordinates.

 Line segments in fractional coordinates (reciprocal lattice):
    0.500000  0.500000  0.000000  ...  0.500000  0.000000  0.000000
    0.500000  0.000000  0.000000  ...  1.000000  0.000000  0.000000
    1.000000  0.000000  0.000000  ...  0.500000  0.500000  0.000000
    0.500000  0.500000  0.000000  ...  1.000000  1.000000  0.000000
    1.000000  1.000000  0.000000  ...  1.000000  0.500000  0.000000
    1.000000  0.500000  0.000000  ...  0.500000  0.500000  0.000000

 Generated    15 points on each line segment, for a total of     90 k-points:

 Following reciprocal coordinates:
            Coordinates               Weight
  0.500000  0.500000  0.000000      0.011111
  0.500000  0.464286  0.000000      0.011111
  0.500000  0.428571  0.000000      0.011111
  0.500000  0.392857  0.000000      0.011111
  0.500000  0.357143  0.000000      0.011111
  0.500000  0.321429  0.000000      0.011111
  0.500000  0.285714  0.000000      0.011111
  0.500000  0.250000  0.000000      0.011111
  0.500000  0.214286  0.000000      0.011111
  0.500000  0.178571  0.000000      0.011111
  0.500000  0.142857  0.000000      0.011111
  0.500000  0.107143  0.000000      0.011111
  0.500000  0.071429  0.000000      0.011111
  0.500000  0.035714  0.000000      0.011111
  0.500000  0.000000  0.000000      0.011111
  0.500000  0.000000  0.000000      0.011111
  0.535714  0.000000  0.000000      0.011111
  0.571429  0.000000  0.000000      0.011111
  0.607143  0.000000  0.000000      0.011111
  0.642857  0.000000  0.000000      0.011111
  0.678571  0.000000  0.000000      0.011111
  0.714286  0.000000  0.000000      0.011111
  0.750000  0.000000  0.000000      0.011111
  0.785714  0.000000  0.000000      0.011111
  0.821429  0.000000  0.000000      0.011111
  0.857143  0.000000  0.000000      0.011111
  0.892857  0.000000  0.000000      0.011111
  0.928571  0.000000  0.000000      0.011111
  0.964286  0.000000  0.000000      0.011111
  1.000000  0.000000  0.000000      0.011111
  1.000000  0.000000  0.000000      0.011111
  0.964286  0.035714  0.000000      0.011111
  0.928571  0.071429  0.000000      0.011111
  0.892857  0.107143  0.000000      0.011111
  0.857143  0.142857  0.000000      0.011111
  0.821429  0.178571  0.000000      0.011111
  0.785714  0.214286  0.000000      0.011111
  0.750000  0.250000  0.000000      0.011111
  0.714286  0.285714  0.000000      0.011111
  0.678571  0.321429  0.000000      0.011111
  0.642857  0.357143  0.000000      0.011111
  0.607143  0.392857  0.000000      0.011111
  0.571429  0.428571  0.000000      0.011111
  0.535714  0.464286  0.000000      0.011111
  0.500000  0.500000  0.000000      0.011111
  0.500000  0.500000  0.000000      0.011111
  0.535714  0.535714  0.000000      0.011111
  0.571429  0.571429  0.000000      0.011111
  0.607143  0.607143  0.000000      0.011111
  0.642857  0.642857  0.000000      0.011111
  0.678571  0.678571  0.000000      0.011111
  0.714286  0.714286  0.000000      0.011111
  0.750000  0.750000  0.000000      0.011111
  0.785714  0.785714  0.000000      0.011111
  0.821429  0.821429  0.000000      0.011111
  0.857143  0.857143  0.000000      0.011111
  0.892857  0.892857  0.000000      0.011111
  0.928571  0.928571  0.000000      0.011111
  0.964286  0.964286  0.000000      0.011111
  1.000000  1.000000  0.000000      0.011111
  1.000000  1.000000  0.000000      0.011111
  1.000000  0.964286  0.000000      0.011111
  1.000000  0.928571  0.000000      0.011111
  1.000000  0.892857  0.000000      0.011111
  1.000000  0.857143  0.000000      0.011111
  1.000000  0.821429  0.000000      0.011111
  1.000000  0.785714  0.000000      0.011111
  1.000000  0.750000  0.000000      0.011111
  1.000000  0.714286  0.000000      0.011111
  1.000000  0.678571  0.000000      0.011111
  1.000000  0.642857  0.000000      0.011111
  1.000000  0.607143  0.000000      0.011111
  1.000000  0.571429  0.000000      0.011111
  1.000000  0.535714  0.000000      0.011111
  1.000000  0.500000  0.000000      0.011111
  1.000000  0.500000  0.000000      0.011111
  0.964286  0.500000  0.000000      0.011111
  0.928571  0.500000  0.000000      0.011111
  0.892857  0.500000  0.000000      0.011111
  0.857143  0.500000  0.000000      0.011111
  0.821429  0.500000  0.000000      0.011111
  0.785714  0.500000  0.000000      0.011111
  0.750000  0.500000  0.000000      0.011111
  0.714286  0.500000  0.000000      0.011111
  0.678571  0.500000  0.000000      0.011111
  0.642857  0.500000  0.000000      0.011111
  0.607143  0.500000  0.000000      0.011111
  0.571429  0.500000  0.000000      0.011111
  0.535714  0.500000  0.000000      0.011111
  0.500000  0.500000  0.000000      0.011111

 Following cartesian coordinates:
            Coordinates               Weight
  0.031584  0.031584 -0.000000      0.011111
  0.031584  0.029328 -0.000000      0.011111
  0.031584  0.027072 -0.000000      0.011111
  0.031584  0.024816 -0.000000      0.011111
  0.031584  0.022560 -0.000000      0.011111
  0.031584  0.020304 -0.000000      0.011111
  0.031584  0.018048 -0.000000      0.011111
  0.031584  0.015792 -0.000000      0.011111
  0.031584  0.013536 -0.000000      0.011111
  0.031584  0.011280 -0.000000      0.011111
  0.031584  0.009024 -0.000000      0.011111
  0.031584  0.006768 -0.000000      0.011111
  0.031584  0.004512 -0.000000      0.011111
  0.031584  0.002256 -0.000000      0.011111
  0.031584 -0.000000 -0.000000      0.011111
  0.031584 -0.000000 -0.000000      0.011111
  0.033840 -0.000000 -0.000000      0.011111
  0.036096 -0.000000 -0.000000      0.011111
  0.038352 -0.000000 -0.000000      0.011111
  0.040608 -0.000000 -0.000000      0.011111
  0.042864 -0.000000 -0.000000      0.011111
  0.045120 -0.000000 -0.000000      0.011111
  0.047376 -0.000000 -0.000000      0.011111
  0.049632 -0.000000 -0.000000      0.011111
  0.051888 -0.000000 -0.000000      0.011111
  0.054144 -0.000000 -0.000000      0.011111
  0.056400 -0.000000 -0.000000      0.011111
  0.058656 -0.000000 -0.000000      0.011111
  0.060912 -0.000000 -0.000000      0.011111
  0.063168 -0.000000 -0.000000      0.011111
  0.063168 -0.000000 -0.000000      0.011111
  0.060912  0.002256 -0.000000      0.011111
  0.058656  0.004512 -0.000000      0.011111
  0.056400  0.006768 -0.000000      0.011111
  0.054144  0.009024 -0.000000      0.011111
  0.051888  0.011280 -0.000000      0.011111
  0.049632  0.013536 -0.000000      0.011111
  0.047376  0.015792 -0.000000      0.011111
  0.045120  0.018048 -0.000000      0.011111
  0.042864  0.020304 -0.000000      0.011111
  0.040608  0.022560 -0.000000      0.011111
  0.038352  0.024816 -0.000000      0.011111
  0.036096  0.027072 -0.000000      0.011111
  0.033840  0.029328 -0.000000      0.011111
  0.031584  0.031584 -0.000000      0.011111
  0.031584  0.031584 -0.000000      0.011111
  0.033840  0.033840 -0.000000      0.011111
  0.036096  0.036096 -0.000000      0.011111
  0.038352  0.038352 -0.000000      0.011111
  0.040608  0.040608 -0.000000      0.011111
  0.042864  0.042864 -0.000000      0.011111
  0.045120  0.045120 -0.000000      0.011111
  0.047376  0.047376 -0.000000      0.011111
  0.049632  0.049632 -0.000000      0.011111
  0.051888  0.051888 -0.000000      0.011111
  0.054144  0.054144 -0.000000      0.011111
  0.056400  0.056400 -0.000000      0.011111
  0.058656  0.058656 -0.000000      0.011111
  0.060912  0.060912 -0.000000      0.011111
  0.063168  0.063168 -0.000000      0.011111
  0.063168  0.063168 -0.000000      0.011111
  0.063168  0.060912 -0.000000      0.011111
  0.063168  0.058656 -0.000000      0.011111
  0.063168  0.056400 -0.000000      0.011111
  0.063168  0.054144 -0.000000      0.011111
  0.063168  0.051888 -0.000000      0.011111
  0.063168  0.049632 -0.000000      0.011111
  0.063168  0.047376 -0.000000      0.011111
  0.063168  0.045120 -0.000000      0.011111
  0.063168  0.042864 -0.000000      0.011111
  0.063168  0.040608 -0.000000      0.011111
  0.063168  0.038352 -0.000000      0.011111
  0.063168  0.036096 -0.000000      0.011111
  0.063168  0.033840 -0.000000      0.011111
  0.063168  0.031584 -0.000000      0.011111
  0.063168  0.031584 -0.000000      0.011111
  0.060912  0.031584 -0.000000      0.011111
  0.058656  0.031584 -0.000000      0.011111
  0.056400  0.031584 -0.000000      0.011111
  0.054144  0.031584 -0.000000      0.011111
  0.051888  0.031584 -0.000000      0.011111
  0.049632  0.031584 -0.000000      0.011111
  0.047376  0.031584 -0.000000      0.011111
  0.045120  0.031584 -0.000000      0.011111
  0.042864  0.031584 -0.000000      0.011111
  0.040608  0.031584 -0.000000      0.011111
  0.038352  0.031584 -0.000000      0.011111
  0.036096  0.031584 -0.000000      0.011111
  0.033840  0.031584 -0.000000      0.011111
  0.031584  0.031584 -0.000000      0.011111
 


--------------------------------------------------------------------------------------------------------




 Dimension of arrays:
   k-points           NKPTS =     90   k-points in BZ     NKDIM =     90   number of bands    NBANDS=    168
   number of dos      NEDOS =    301   number of ions     NIONS =     66
   non local maximal  LDIM  =      6   non local SUM 2l+1 LMDIM =     18
   total plane-waves  NPLWV = 680400
   max r-space proj   IRMAX =   1754   max aug-charges    IRDMAX=   6497
   dimension x,y,z NGX =    90 NGY =   90 NGZ =   84
   dimension x,y,z NGXF=   180 NGYF=  180 NGZF=  168
   support grid    NGXF=   180 NGYF=  180 NGZF=  168
   ions per type =               2  16  32  16
   NGX,Y,Z   is equivalent  to a cutoff of   9.45,  9.45,  9.31 a.u.
   NGXF,Y,Z  is equivalent  to a cutoff of  18.90, 18.90, 18.62 a.u.

 SYSTEM =  unknown system                          
 POSCAR =  Generated by VASPKIT code               

 Startparameter for this run:
   NWRITE =      2    write-flag & timer
   PREC   = normal    normal or accurate (medium, high low for compatibility)
   ISTART =      0    job   : 0-new  1-cont  2-samecut
   ICHARG =     11    charge: 1-file 2-atom 10-const
   ISPIN  =      2    spin polarized calculation?
   LNONCOLLINEAR =      F non collinear calculations
   LSORBIT =      F    spin-orbit coupling
   INIWAV =      1    electr: 0-lowe 1-rand  2-diag
   LASPH  =      F    aspherical Exc in radial PAW
 Electronic Relaxation 1
   ENCUT  =  500.0 eV  36.75 Ry    6.06 a.u.  28.86 28.86 27.35*2*pi/ulx,y,z
   ENINI  =  500.0     initial cutoff
   ENAUG  =  644.9 eV  augmentation charge cutoff
   NELM   =    200;   NELMIN=  2; NELMDL=  0     # of ELM steps 
   EDIFF  = 0.1E-04   stopping-criterion for ELM
   LREAL  =      T    real-space projection
   NLSPLINE    = F    spline interpolate recip. space projectors
   LCOMPAT=      F    compatible to vasp.4.4
   GGA_COMPAT  = T    GGA compatible to vasp.4.4-vasp.4.6
   LMAXPAW     = -100 max onsite density
   LMAXMIX     =    4 max onsite mixed and CHGCAR
   VOSKOWN=      0    Vosko Wilk Nusair interpolation
   ROPT   =   -0.00050  -0.00050  -0.00050  -0.00050
 Ionic relaxation
   EDIFFG = -.1E-01   stopping-criterion for IOM
   NSW    =      0    number of steps for IOM
   NBLOCK =      1;   KBLOCK =      1    inner block; outer block 
   IBRION =     -1    ionic relax: 0-MD 1-quasi-New 2-CG
   NFREE  =      0    steps in history (QN), initial steepest desc. (CG)
   ISIF   =      2    stress and relaxation
   IWAVPR =     10    prediction:  0-non 1-charg 2-wave 3-comb
   ISYM   =      2    0-nonsym 1-usesym 2-fastsym
   LCORR  =      T    Harris-Foulkes like correction to forces

   POTIM  = 0.5000    time-step for ionic-motion
   TEIN   =    0.0    initial temperature
   TEBEG  =    0.0;   TEEND  =   0.0 temperature during run
   SMASS  =  -3.00    Nose mass-parameter (am)
   estimated Nose-frequenzy (Omega)   =  0.10E-29 period in steps = 0.13E+47 mass=  -0.573E-26a.u.
   SCALEE = 1.0000    scale energy and forces
   NPACO  =    256;   APACO  = 10.0  distance and # of slots for P.C.
   PSTRESS=    0.0 pullay stress

  Mass of Ions in am
   POMASS =  52.00 16.00 12.01  1.00
  Ionic Valenz
   ZVAL   =  12.00  6.00  4.00  1.00
  Atomic Wigner-Seitz radii
   RWIGS  =  -1.00 -1.00 -1.00 -1.00
  virtual crystal weights 
   VCA    =   1.00  1.00  1.00  1.00
   NELECT =     264.0000    total number of electrons
   NUPDOWN=      -1.0000    fix difference up-down

 DOS related values:
   EMIN   =  10.00;   EMAX   =-10.00  energy-range for DOS
   EFERMI =   0.00
   ISMEAR =     1;   SIGMA  =   0.20  broadening in eV -4-tet -1-fermi 0-gaus

 Electronic relaxation 2 (details)
   IALGO  =     68    algorithm
   LDIAG  =      T    sub-space diagonalisation (order eigenvalues)
   LSUBROT=      F    optimize rotation matrix (better conditioning)
   TURBO    =      0    0=normal 1=particle mesh
   IRESTART =      0    0=no restart 2=restart with 2 vectors
   NREBOOT  =      0    no. of reboots
   NMIN     =      0    reboot dimension
   EREF     =   0.00    reference energy to select bands
   IMIX   =      4    mixing-type and parameters
     AMIX     =   0.20;   BMIX     =  0.00
     AMIX_MAG =   0.80;   BMIX_MAG =  0.00
     AMIN     =   0.10
     WC   =   100.;   INIMIX=   1;  MIXPRE=   1;  MAXMIX= -45

 Intra band minimization:
   WEIMIN = 0.0000     energy-eigenvalue tresh-hold
   EBREAK =  0.15E-07  absolut break condition
   DEPER  =   0.30     relativ break condition  

   TIME   =   0.40     timestep for ELM

  volume/ion in A,a.u.               =      56.96       384.37
  Fermi-wavevector in a.u.,A,eV,Ry     =   0.675426  1.276369  6.206976  0.456200
  Thomas-Fermi vector in A             =   1.752438
 
 Write flags
   LWAVE        =      F    write WAVECAR
   LDOWNSAMPLE  =      F    k-point downsampling of WAVECAR
   LCHARG       =      F    write CHGCAR
   LVTOT        =      T    write LOCPOT, total local potential
   LVHAR        =      F    write LOCPOT, Hartree potential only
   LELF         =      F    write electronic localiz. function (ELF)
   LORBIT       =     11    0 simple, 1 ext, 2 COOP (PROOUT), +10 PAW based schemes


 Dipole corrections
   LMONO  =      F    monopole corrections only (constant potential shift)
   LDIPOL =      F    correct potential (dipole corrections)
   IDIPOL =      0    1-x, 2-y, 3-z, 4-all directions 
   EPSILON=  1.0000000 bulk dielectric constant

 LDA+U is selected, type is set to LDAUTYPE =  2
   angular momentum for each species LDAUL =     2   -1   -1   -1
   U (eV)           for each species LDAUU =   3.0  0.0  0.0  0.0
   J (eV)           for each species LDAUJ =   1.0  0.0  0.0  0.0
 Exchange correlation treatment:
   GGA     =    --    GGA type
   LEXCH   =     8    internal setting for exchange type
   LIBXC   =     F    Libxc                    
   VOSKOWN =     0    Vosko Wilk Nusair interpolation
   LHFCALC =     F    Hartree Fock is set to
   LHFONE  =     F    Hartree Fock one center treatment
   AEXX    =    0.0000 exact exchange contribution

 Linear response parameters
   LEPSILON=     F    determine dielectric tensor
   LRPA    =     F    only Hartree local field effects (RPA)
   LNABLA  =     F    use nabla operator in PAW spheres
   LVEL    =     F    velocity operator in full k-point grid
   CSHIFT  =0.1000    complex shift for real part using Kramers Kronig
   OMEGAMAX=  -1.0    maximum frequency
   DEG_THRESHOLD= 0.2000000E-02 threshold for treating states as degnerate
   RTIME   =   -0.100 relaxation time in fs
  (WPLASMAI=    0.000 imaginary part of plasma frequency in eV, 0.658/RTIME)
   DFIELD  = 0.0000000 0.0000000 0.0000000 field for delta impulse in time
 
  Optional k-point grid parameters
   LKPOINTS_OPT  =     F    use optional k-point grid
   KPOINTS_OPT_MODE=     1    mode for optional k-point grid
 
 Orbital magnetization related:
   ORBITALMAG=     F  switch on orbital magnetization
   LCHIMAG   =     F  perturbation theory with respect to B field
   DQ        =  0.001000  dq finite difference perturbation B field
   LLRAUG    =     F  two centre corrections for induced B field



--------------------------------------------------------------------------------------------------------


 Static calculation
 charge density and potential remain constant during run
 spin polarized calculation
 RMM-DIIS sequential band-by-band and
  variant of blocked Davidson during initial phase
 perform sub-space diagonalisation
    before iterative eigenvector-optimisation
 no mixing
 using additional bands           36
 real space projection scheme for non local part
 use partial core corrections
 calculate Harris-corrections to forces 
   (improved forces if not selfconsistent)
 use gradient corrections 
 WARNING: stress and forces are not correct
  (second derivative of E(xc) not defined)
 use of overlap-Matrix (Vanderbilt PP)
 Methfessel and Paxton  Order N= 1 SIGMA  =   0.20


--------------------------------------------------------------------------------------------------------


  energy-cutoff  :      500.00
  volume of cell :     3759.20
      direct lattice vectors                 reciprocal lattice vectors
    15.830776215  0.000000000  0.000000000     0.063168097 -0.000000000 -0.000000000
     0.000000000 15.830776215  0.000000000     0.000000000  0.063168097 -0.000000000
     0.000000000  0.000000000 15.000000000     0.000000000  0.000000000  0.066666667

  length of vectors
    15.830776215 15.830776215 15.000000000     0.063168097  0.063168097  0.066666667


 
 k-points in units of 2pi/SCALE and weight: K-Path Generated by VASPKIT.            
   0.03158405  0.03158405 -0.00000000       0.011
   0.03158405  0.02932804 -0.00000000       0.011
   0.03158405  0.02707204 -0.00000000       0.011
   0.03158405  0.02481604 -0.00000000       0.011
   0.03158405  0.02256003 -0.00000000       0.011
   0.03158405  0.02030403 -0.00000000       0.011
   0.03158405  0.01804803 -0.00000000       0.011
   0.03158405  0.01579202 -0.00000000       0.011
   0.03158405  0.01353602 -0.00000000       0.011
   0.03158405  0.01128002 -0.00000000       0.011
   0.03158405  0.00902401 -0.00000000       0.011
   0.03158405  0.00676801 -0.00000000       0.011
   0.03158405  0.00451201 -0.00000000       0.011
   0.03158405  0.00225600 -0.00000000       0.011
   0.03158405 -0.00000000 -0.00000000       0.011
   0.03158405 -0.00000000 -0.00000000       0.011
   0.03384005 -0.00000000 -0.00000000       0.011
   0.03609606 -0.00000000 -0.00000000       0.011
   0.03835206 -0.00000000 -0.00000000       0.011
   0.04060806 -0.00000000 -0.00000000       0.011
   0.04286407 -0.00000000 -0.00000000       0.011
   0.04512007 -0.00000000 -0.00000000       0.011
   0.04737607 -0.00000000 -0.00000000       0.011
   0.04963208 -0.00000000 -0.00000000       0.011
   0.05188808 -0.00000000 -0.00000000       0.011
   0.05414408 -0.00000000 -0.00000000       0.011
   0.05640009 -0.00000000 -0.00000000       0.011
   0.05865609 -0.00000000 -0.00000000       0.011
   0.06091209 -0.00000000 -0.00000000       0.011
   0.06316810 -0.00000000 -0.00000000       0.011
   0.06316810 -0.00000000 -0.00000000       0.011
   0.06091209  0.00225600 -0.00000000       0.011
   0.05865609  0.00451201 -0.00000000       0.011
   0.05640009  0.00676801 -0.00000000       0.011
   0.05414408  0.00902401 -0.00000000       0.011
   0.05188808  0.01128002 -0.00000000       0.011
   0.04963208  0.01353602 -0.00000000       0.011
   0.04737607  0.01579202 -0.00000000       0.011
   0.04512007  0.01804803 -0.00000000       0.011
   0.04286407  0.02030403 -0.00000000       0.011
   0.04060806  0.02256003 -0.00000000       0.011
   0.03835206  0.02481604 -0.00000000       0.011
   0.03609606  0.02707204 -0.00000000       0.011
   0.03384005  0.02932804 -0.00000000       0.011
   0.03158405  0.03158405 -0.00000000       0.011
   0.03158405  0.03158405 -0.00000000       0.011
   0.03384005  0.03384005 -0.00000000       0.011
   0.03609606  0.03609606 -0.00000000       0.011
   0.03835206  0.03835206 -0.00000000       0.011
   0.04060806  0.04060806 -0.00000000       0.011
   0.04286407  0.04286407 -0.00000000       0.011
   0.04512007  0.04512007 -0.00000000       0.011
   0.04737607  0.04737607 -0.00000000       0.011
   0.04963208  0.04963208 -0.00000000       0.011
   0.05188808  0.05188808 -0.00000000       0.011
   0.05414408  0.05414408 -0.00000000       0.011
   0.05640009  0.05640009 -0.00000000       0.011
   0.05865609  0.05865609 -0.00000000       0.011
   0.06091209  0.06091209 -0.00000000       0.011
   0.06316810  0.06316810 -0.00000000       0.011
   0.06316810  0.06316810 -0.00000000       0.011
   0.06316810  0.06091209 -0.00000000       0.011
   0.06316810  0.05865609 -0.00000000       0.011
   0.06316810  0.05640009 -0.00000000       0.011
   0.06316810  0.05414408 -0.00000000       0.011
   0.06316810  0.05188808 -0.00000000       0.011
   0.06316810  0.04963208 -0.00000000       0.011
   0.06316810  0.04737607 -0.00000000       0.011
   0.06316810  0.04512007 -0.00000000       0.011
   0.06316810  0.04286407 -0.00000000       0.011
   0.06316810  0.04060806 -0.00000000       0.011
   0.06316810  0.03835206 -0.00000000       0.011
   0.06316810  0.03609606 -0.00000000       0.011
   0.06316810  0.03384005 -0.00000000       0.011
   0.06316810  0.03158405 -0.00000000       0.011
   0.06316810  0.03158405 -0.00000000       0.011
   0.06091209  0.03158405 -0.00000000       0.011
   0.05865609  0.03158405 -0.00000000       0.011
   0.05640009  0.03158405 -0.00000000       0.011
   0.05414408  0.03158405 -0.00000000       0.011
   0.05188808  0.03158405 -0.00000000       0.011
   0.04963208  0.03158405 -0.00000000       0.011
   0.04737607  0.03158405 -0.00000000       0.011
   0.04512007  0.03158405 -0.00000000       0.011
   0.04286407  0.03158405 -0.00000000       0.011
   0.04060806  0.03158405 -0.00000000       0.011
   0.03835206  0.03158405 -0.00000000       0.011
   0.03609606  0.03158405 -0.00000000       0.011
   0.03384005  0.03158405 -0.00000000       0.011
   0.03158405  0.03158405 -0.00000000       0.011
 
 k-points in reciprocal lattice and weights: K-Path Generated by VASPKIT.            
   0.50000000  0.50000000  0.00000000       0.011
   0.50000000  0.46428571  0.00000000       0.011
   0.50000000  0.42857143  0.00000000       0.011
   0.50000000  0.39285714  0.00000000       0.011
   0.50000000  0.35714286  0.00000000       0.011
   0.50000000  0.32142857  0.00000000       0.011
   0.50000000  0.28571429  0.00000000       0.011
   0.50000000  0.25000000  0.00000000       0.011
   0.50000000  0.21428571  0.00000000       0.011
   0.50000000  0.17857143  0.00000000       0.011
   0.50000000  0.14285714  0.00000000       0.011
   0.50000000  0.10714286  0.00000000       0.011
   0.50000000  0.07142857  0.00000000       0.011
   0.50000000  0.03571429  0.00000000       0.011
   0.50000000  0.00000000  0.00000000       0.011
   0.50000000  0.00000000  0.00000000       0.011
   0.53571429  0.00000000  0.00000000       0.011
   0.57142857  0.00000000  0.00000000       0.011
   0.60714286  0.00000000  0.00000000       0.011
   0.64285714  0.00000000  0.00000000       0.011
   0.67857143  0.00000000  0.00000000       0.011
   0.71428571  0.00000000  0.00000000       0.011
   0.75000000  0.00000000  0.00000000       0.011
   0.78571429  0.00000000  0.00000000       0.011
   0.82142857  0.00000000  0.00000000       0.011
   0.85714286  0.00000000  0.00000000       0.011
   0.89285714  0.00000000  0.00000000       0.011
   0.92857143  0.00000000  0.00000000       0.011
   0.96428571  0.00000000  0.00000000       0.011
   1.00000000  0.00000000  0.00000000       0.011
   1.00000000  0.00000000  0.00000000       0.011
   0.96428571  0.03571429  0.00000000       0.011
   0.92857143  0.07142857  0.00000000       0.011
   0.89285714  0.10714286  0.00000000       0.011
   0.85714286  0.14285714  0.00000000       0.011
   0.82142857  0.17857143  0.00000000       0.011
   0.78571429  0.21428571  0.00000000       0.011
   0.75000000  0.25000000  0.00000000       0.011
   0.71428571  0.28571429  0.00000000       0.011
   0.67857143  0.32142857  0.00000000       0.011
   0.64285714  0.35714286  0.00000000       0.011
   0.60714286  0.39285714  0.00000000       0.011
   0.57142857  0.42857143  0.00000000       0.011
   0.53571429  0.46428571  0.00000000       0.011
   0.50000000  0.50000000  0.00000000       0.011
   0.50000000  0.50000000  0.00000000       0.011
   0.53571429  0.53571429  0.00000000       0.011
   0.57142857  0.57142857  0.00000000       0.011
   0.60714286  0.60714286  0.00000000       0.011
   0.64285714  0.64285714  0.00000000       0.011
   0.67857143  0.67857143  0.00000000       0.011
   0.71428571  0.71428571  0.00000000       0.011
   0.75000000  0.75000000  0.00000000       0.011
   0.78571429  0.78571429  0.00000000       0.011
   0.82142857  0.82142857  0.00000000       0.011
   0.85714286  0.85714286  0.00000000       0.011
   0.89285714  0.89285714  0.00000000       0.011
   0.92857143  0.92857143  0.00000000       0.011
   0.96428571  0.96428571  0.00000000       0.011
   1.00000000  1.00000000  0.00000000       0.011
   1.00000000  1.00000000  0.00000000       0.011
   1.00000000  0.96428571  0.00000000       0.011
   1.00000000  0.92857143  0.00000000       0.011
   1.00000000  0.89285714  0.00000000       0.011
   1.00000000  0.85714286  0.00000000       0.011
   1.00000000  0.82142857  0.00000000       0.011
   1.00000000  0.78571429  0.00000000       0.011
   1.00000000  0.75000000  0.00000000       0.011
   1.00000000  0.71428571  0.00000000       0.011
   1.00000000  0.67857143  0.00000000       0.011
   1.00000000  0.64285714  0.00000000       0.011
   1.00000000  0.60714286  0.00000000       0.011
   1.00000000  0.57142857  0.00000000       0.011
   1.00000000  0.53571429  0.00000000       0.011
   1.00000000  0.50000000  0.00000000       0.011
   1.00000000  0.50000000  0.00000000       0.011
   0.96428571  0.50000000  0.00000000       0.011
   0.92857143  0.50000000  0.00000000       0.011
   0.89285714  0.50000000  0.00000000       0.011
   0.85714286  0.50000000  0.00000000       0.011
   0.82142857  0.50000000  0.00000000       0.011
   0.78571429  0.50000000  0.00000000       0.011
   0.75000000  0.50000000  0.00000000       0.011
   0.71428571  0.50000000  0.00000000       0.011
   0.67857143  0.50000000  0.00000000       0.011
   0.64285714  0.50000000  0.00000000       0.011
   0.60714286  0.50000000  0.00000000       0.011
   0.57142857  0.50000000  0.00000000       0.011
   0.53571429  0.50000000  0.00000000       0.011
   0.50000000  0.50000000  0.00000000       0.011
 
 position of ions in fractional coordinates (direct lattice) 
   0.00000000  0.00000000  0.50000000
   0.50000000  0.50000000  0.50000000
   0.57872239  0.41581433  0.50000000
   0.07872239  0.91581433  0.50000000
   0.42127761  0.58418567  0.50000000
   0.92127761  0.08418567  0.50000000
   0.08418567  0.07872239  0.50000000
   0.58418567  0.57872239  0.50000000
   0.91581433  0.92127761  0.50000000
   0.41581433  0.42127761  0.50000000
   0.52287002  0.28477244  0.50000000
   0.02287002  0.78477244  0.50000000
   0.47712998  0.71522756  0.50000000
   0.97712998  0.21522756  0.50000000
   0.21522756  0.02287002  0.50000000
   0.71522756  0.52287002  0.50000000
   0.78477244  0.97712998  0.50000000
   0.28477244  0.47712998  0.50000000
   0.58580754  0.32930551  0.50000000
   0.08580754  0.82930551  0.50000000
   0.41419246  0.67069449  0.50000000
   0.91419246  0.17069449  0.50000000
   0.17069449  0.08580754  0.50000000
   0.67069449  0.58580754  0.50000000
   0.82930551  0.91419246  0.50000000
   0.32930551  0.41419246  0.50000000
   0.67184307  0.29137923  0.50000000
   0.17184307  0.79137923  0.50000000
   0.32815693  0.70862077  0.50000000
   0.82815693  0.20862077  0.50000000
   0.20862077  0.17184307  0.50000000
   0.70862077  0.67184307  0.50000000
   0.79137923  0.82815693  0.50000000
   0.29137923  0.32815693  0.50000000
   0.24689862  0.83856797  0.50000000
   0.74689862  0.33856797  0.50000000
   0.75310138  0.16143203  0.50000000
   0.25310138  0.66143203  0.50000000
   0.66143203  0.74689862  0.50000000
   0.16143203  0.24689862  0.50000000
   0.33856797  0.25310138  0.50000000
   0.83856797  0.75310138  0.50000000
   0.32422088  0.79739384  0.50000000
   0.82422088  0.29739384  0.50000000
   0.67577912  0.20260616  0.50000000
   0.17577912  0.70260616  0.50000000
   0.70260616  0.82422088  0.50000000
   0.20260616  0.32422088  0.50000000
   0.29739384  0.17577912  0.50000000
   0.79739384  0.67577912  0.50000000
   0.24382598  0.90695058  0.50000000
   0.74382598  0.40695058  0.50000000
   0.75617402  0.09304942  0.50000000
   0.25617402  0.59304942  0.50000000
   0.59304942  0.74382598  0.50000000
   0.09304942  0.24382598  0.50000000
   0.40695058  0.25617402  0.50000000
   0.90695058  0.75617402  0.50000000
   0.38283912  0.83345765  0.50000000
   0.88283912  0.33345765  0.50000000
   0.61716088  0.16654235  0.50000000
   0.11716088  0.66654235  0.50000000
   0.66654235  0.88283912  0.50000000
   0.16654235  0.38283912  0.50000000
   0.33345765  0.11716088  0.50000000
   0.83345765  0.61716088  0.50000000
 
 position of ions in cartesian coordinates  (Angst):
   0.00000000  0.00000000  7.50000000
   7.91538811  7.91538811  7.50000000
   9.16162466  6.58266366  7.50000000
   1.24623656 14.49805176  7.50000000
   6.66915155  9.24811256  7.50000000
  14.58453966  1.33272445  7.50000000
   1.33272445  1.24623656  7.50000000
   9.24811256  9.16162466  7.50000000
  14.49805176 14.58453966  7.50000000
   6.58266366  6.66915155  7.50000000
   8.27743833  4.50816870  7.50000000
   0.36205023 12.42355681  7.50000000
   7.55333788 11.32260751  7.50000000
  15.46872599  3.40721941  7.50000000
   3.40721941  0.36205023  7.50000000
  11.32260751  8.27743833  7.50000000
  12.42355681 15.46872599  7.50000000
   4.50816870  7.55333788  7.50000000
   9.27378802  5.21316191  7.50000000
   1.35839991 13.12855002  7.50000000
   6.55698819 10.61761430  7.50000000
  14.47237630  2.70222619  7.50000000
   2.70222619  1.35839991  7.50000000
  10.61761430  9.27378802  7.50000000
  13.12855002 14.47237630  7.50000000
   5.21316191  6.55698819  7.50000000
  10.63579734  4.61275945  7.50000000
   2.72040924 12.52814756  7.50000000
   5.19497887 11.21801676  7.50000000
  13.11036698  3.30262865  7.50000000
   3.30262865  2.72040924  7.50000000
  11.21801676 10.63579734  7.50000000
  12.52814756 13.11036698  7.50000000
   4.61275945  5.19497887  7.50000000
   3.90859673 13.27518185  7.50000000
  11.82398484  5.35979374  7.50000000
  11.92217948  2.55559436  7.50000000
   4.00679137 10.47098247  7.50000000
  10.47098247 11.82398484  7.50000000
   2.55559436  3.90859673  7.50000000
   5.35979374  4.00679137  7.50000000
  13.27518185 11.92217948  7.50000000
   5.13266815 12.62336342  7.50000000
  13.04805626  4.70797531  7.50000000
  10.69810807  3.20741280  7.50000000
   2.78271996 11.12280091  7.50000000
  11.12280091 13.04805626  7.50000000
   3.20741280  5.13266815  7.50000000
   4.70797531  2.78271996  7.50000000
  12.62336342 10.69810807  7.50000000
   3.85995457 14.35773172  7.50000000
  11.77534268  6.44234361  7.50000000
  11.97082165  1.47304449  7.50000000
   4.05543354  9.38843260  7.50000000
   9.38843260 11.77534268  7.50000000
   1.47304449  3.85995457  7.50000000
   6.44234361  4.05543354  7.50000000
  14.35773172 11.97082165  7.50000000
   6.06064042 13.19428159  7.50000000
  13.97602852  5.27889348  7.50000000
   9.77013580  2.63649462  7.50000000
   1.85474769 10.55188273  7.50000000
  10.55188273 13.97602852  7.50000000
   2.63649462  6.06064042  7.50000000
   5.27889348  1.85474769  7.50000000
  13.19428159  9.77013580  7.50000000
 


--------------------------------------------------------------------------------------------------------


 k-point   1 :   0.5000 0.5000 0.0000  plane waves:   95488
 k-point   2 :   0.5000 0.4643 0.0000  plane waves:   95496
 k-point   3 :   0.5000 0.4286 0.0000  plane waves:   95460
 k-point   4 :   0.5000 0.3929 0.0000  plane waves:   95478
 k-point   5 :   0.5000 0.3571 0.0000  plane waves:   95462
 k-point   6 :   0.5000 0.3214 0.0000  plane waves:   95496
 k-point   7 :   0.5000 0.2857 0.0000  plane waves:   95496
 k-point   8 :   0.5000 0.2500 0.0000  plane waves:   95464
 k-point   9 :   0.5000 0.2143 0.0000  plane waves:   95498
 k-point  10 :   0.5000 0.1786 0.0000  plane waves:   95454
 k-point  11 :   0.5000 0.1429 0.0000  plane waves:   95466
 k-point  12 :   0.5000 0.1071 0.0000  plane waves:   95490
 k-point  13 :   0.5000 0.0714 0.0000  plane waves:   95464
 k-point  14 :   0.5000 0.0357 0.0000  plane waves:   95424
 k-point  15 :   0.5000 0.0000 0.0000  plane waves:   95418
 k-point  16 :   0.5000 0.0000 0.0000  plane waves:   95418
 k-point  17 :   0.5357 0.0000 0.0000  plane waves:   95454
 k-point  18 :   0.5714 0.0000 0.0000  plane waves:   95440
 k-point  19 :   0.6071 0.0000 0.0000  plane waves:   95478
 k-point  20 :   0.6429 0.0000 0.0000  plane waves:   95476
 k-point  21 :   0.6786 0.0000 0.0000  plane waves:   95480
 k-point  22 :   0.7143 0.0000 0.0000  plane waves:   95444
 k-point  23 :   0.7500 0.0000 0.0000  plane waves:   95390
 k-point  24 :   0.7857 0.0000 0.0000  plane waves:   95414
 k-point  25 :   0.8214 0.0000 0.0000  plane waves:   95390
 k-point  26 :   0.8571 0.0000 0.0000  plane waves:   95440
 k-point  27 :   0.8929 0.0000 0.0000  plane waves:   95443
 k-point  28 :   0.9286 0.0000 0.0000  plane waves:   95415
 k-point  29 :   0.9643 0.0000 0.0000  plane waves:   95411
 k-point  30 :   1.0000 0.0000 0.0000  plane waves:   95359
 k-point  31 :   1.0000 0.0000 0.0000  plane waves:   95359
 k-point  32 :   0.9643 0.0357 0.0000  plane waves:   95421
 k-point  33 :   0.9286 0.0714 0.0000  plane waves:   95413
 k-point  34 :   0.8929 0.1071 0.0000  plane waves:   95381
 k-point  35 :   0.8571 0.1429 0.0000  plane waves:   95363
 k-point  36 :   0.8214 0.1786 0.0000  plane waves:   95423
 k-point  37 :   0.7857 0.2143 0.0000  plane waves:   95451
 k-point  38 :   0.7500 0.2500 0.0000  plane waves:   95485
 k-point  39 :   0.7143 0.2857 0.0000  plane waves:   95493
 k-point  40 :   0.6786 0.3214 0.0000  plane waves:   95453
 k-point  41 :   0.6429 0.3571 0.0000  plane waves:   95441
 k-point  42 :   0.6071 0.3929 0.0000  plane waves:   95451
 k-point  43 :   0.5714 0.4286 0.0000  plane waves:   95448
 k-point  44 :   0.5357 0.4643 0.0000  plane waves:   95490
 k-point  45 :   0.5000 0.5000 0.0000  plane waves:   95488
 k-point  46 :   0.5000 0.5000 0.0000  plane waves:   95488
 k-point  47 :   0.5357 0.5357 0.0000  plane waves:   95490
 k-point  48 :   0.5714 0.5714 0.0000  plane waves:   95448
 k-point  49 :   0.6071 0.6071 0.0000  plane waves:   95451
 k-point  50 :   0.6429 0.6429 0.0000  plane waves:   95441
 k-point  51 :   0.6786 0.6786 0.0000  plane waves:   95453
 k-point  52 :   0.7143 0.7143 0.0000  plane waves:   95493
 k-point  53 :   0.7500 0.7500 0.0000  plane waves:   95485
 k-point  54 :   0.7857 0.7857 0.0000  plane waves:   95451
 k-point  55 :   0.8214 0.8214 0.0000  plane waves:   95423
 k-point  56 :   0.8571 0.8571 0.0000  plane waves:   95363
 k-point  57 :   0.8929 0.8929 0.0000  plane waves:   95381
 k-point  58 :   0.9286 0.9286 0.0000  plane waves:   95413
 k-point  59 :   0.9643 0.9643 0.0000  plane waves:   95421
 k-point  60 :   1.0000 1.0000 0.0000  plane waves:   95359
 k-point  61 :   1.0000 1.0000 0.0000  plane waves:   95359
 k-point  62 :   1.0000 0.9643 0.0000  plane waves:   95411
 k-point  63 :   1.0000 0.9286 0.0000  plane waves:   95415
 k-point  64 :   1.0000 0.8929 0.0000  plane waves:   95443
 k-point  65 :   1.0000 0.8571 0.0000  plane waves:   95440
 k-point  66 :   1.0000 0.8214 0.0000  plane waves:   95390
 k-point  67 :   1.0000 0.7857 0.0000  plane waves:   95414
 k-point  68 :   1.0000 0.7500 0.0000  plane waves:   95390
 k-point  69 :   1.0000 0.7143 0.0000  plane waves:   95444
 k-point  70 :   1.0000 0.6786 0.0000  plane waves:   95480
 k-point  71 :   1.0000 0.6429 0.0000  plane waves:   95476
 k-point  72 :   1.0000 0.6071 0.0000  plane waves:   95478
 k-point  73 :   1.0000 0.5714 0.0000  plane waves:   95440
 k-point  74 :   1.0000 0.5357 0.0000  plane waves:   95454
 k-point  75 :   1.0000 0.5000 0.0000  plane waves:   95418
 k-point  76 :   1.0000 0.5000 0.0000  plane waves:   95418
 k-point  77 :   0.9643 0.5000 0.0000  plane waves:   95424
 k-point  78 :   0.9286 0.5000 0.0000  plane waves:   95464
 k-point  79 :   0.8929 0.5000 0.0000  plane waves:   95490
 k-point  80 :   0.8571 0.5000 0.0000  plane waves:   95466
 k-point  81 :   0.8214 0.5000 0.0000  plane waves:   95454
 k-point  82 :   0.7857 0.5000 0.0000  plane waves:   95498
 k-point  83 :   0.7500 0.5000 0.0000  plane waves:   95464
 k-point  84 :   0.7143 0.5000 0.0000  plane waves:   95496
 k-point  85 :   0.6786 0.5000 0.0000  plane waves:   95496
 k-point  86 :   0.6429 0.5000 0.0000  plane waves:   95462
 k-point  87 :   0.6071 0.5000 0.0000  plane waves:   95478
 k-point  88 :   0.5714 0.5000 0.0000  plane waves:   95460
 k-point  89 :   0.5357 0.5000 0.0000  plane waves:   95496
 k-point  90 :   0.5000 0.5000 0.0000  plane waves:   95488

 maximum and minimum number of plane-waves per node :      7998     7912

 maximum number of plane-waves:     95498
 maximum index in each direction: 
   IXMAX=   28   IYMAX=   28   IZMAX=   27
   IXMIN=  -29   IYMIN=  -29   IZMIN=  -27


 real space projection operators:
  total allocation   :       3450.47 KBytes
  max/ min on nodes  :        331.69        247.56


 parallel 3D FFT for wavefunctions:
    minimum data exchange during FFTs selected (reduces bandwidth)
 parallel 3D FFT for charge:
    minimum data exchange during FFTs selected (reduces bandwidth)


 total amount of memory used by VASP MPI-rank0  1040756. kBytes
=======================================================================

   base      :      30000. kBytes
   nonlr-proj:       2345. kBytes
   fftplans  :      10064. kBytes
   grid      :      25159. kBytes
   one-center:        186. kBytes
   wavefun   :     973002. kBytes
 
     INWAV:  cpu time      0.0000: real time      0.0000
 initial charge density was supplied:
 number of electron     264.0000343 magnetization       0.0000000
 keeping initial charge density in first step


--------------------------------------------------------------------------------------------------------


 Maximum index for non-local projection operator          234
 Maximum index for augmentation-charges          401 (set IRDMAX)


--------------------------------------------------------------------------------------------------------


 First call to EWALD:  gamma=   0.114
 Maximum number of real-space cells 3x 3x 3
 Maximum number of reciprocal cells 3x 3x 3

    FEWALD:  cpu time      0.0028: real time      0.0028


--------------------------------------- Iteration      1(   1)  ---------------------------------------


    POTLOK:  cpu time      0.1798: real time      0.2118
    SETDIJ:  cpu time      0.0114: real time      0.0114
     EDDAV:  cpu time    127.1317: real time    127.2805
       DOS:  cpu time      0.0179: real time      0.0190
    --------------------------------------------
      LOOP:  cpu time    127.3407: real time    127.5227

 eigenvalue-minimisations  : 68760
 total energy-change (2. order) : 0.2157860E+04  (-0.9184255E+04)
 number of electron     264.0000343 magnetization       0.0000000
 augmentation part      264.0000343 magnetization       0.0000000

 Free energy of the ion-electron system (eV)
  ---------------------------------------------------
  alpha Z        PSCENC =        87.14698976
  Ewald energy   TEWEN  =     21483.36875425
  -Hartree energ DENC   =    -34336.50457466
  -exchange      EXHF   =         0.00000000
  -V(xc)+E(xc)   XCENC  =      1043.58867298
  PAW double counting   =     24671.98382005   -24823.53133436
  entropy T*S    EENTRO =         0.00331621
  eigenvalues    EBANDS =     -1090.25450101
  atomic energy  EATOM  =     15122.05844254
  Solvation  Ediel_sol  =         0.00000000
  ---------------------------------------------------
  free energy    TOTEN  =      2157.85958574 eV

  energy without entropy =     2157.85626953  energy(sigma->0) =     2157.85848034


--------------------------------------------------------------------------------------------------------




--------------------------------------- Iteration      1(   2)  ---------------------------------------


     EDDAV:  cpu time    161.3304: real time    161.4969
       DOS:  cpu time      0.0159: real time      0.0159
    --------------------------------------------
      LOOP:  cpu time    161.3463: real time    161.5128

 eigenvalue-minimisations  : 92448
 total energy-change (2. order) :-0.2021231E+04  (-0.1900871E+04)
 number of electron     264.0000343 magnetization       0.0000000
 augmentation part      264.0000343 magnetization       0.0000000

 Free energy of the ion-electron system (eV)
  ---------------------------------------------------
  alpha Z        PSCENC =        87.14698976
  Ewald energy   TEWEN  =     21483.36875425
  -Hartree energ DENC   =    -34336.50457466
  -exchange      EXHF   =         0.00000000
  -V(xc)+E(xc)   XCENC  =      1043.58867298
  PAW double counting   =     24671.98382005   -24823.53133436
  entropy T*S    EENTRO =         0.01410052
  eigenvalues    EBANDS =     -3111.49675269
  atomic energy  EATOM  =     15122.05844254
  Solvation  Ediel_sol  =         0.00000000
  ---------------------------------------------------
  free energy    TOTEN  =       136.62811837 eV

  energy without entropy =      136.61401785  energy(sigma->0) =      136.62341820


--------------------------------------------------------------------------------------------------------




--------------------------------------- Iteration      1(   3)  ---------------------------------------


     EDDAV:  cpu time    135.2078: real time    135.3470
       DOS:  cpu time      0.0143: real time      0.0143
    --------------------------------------------
      LOOP:  cpu time    135.2222: real time    135.3613

 eigenvalue-minimisations  : 74448
 total energy-change (2. order) :-0.5686025E+03  (-0.5560463E+03)
 number of electron     264.0000343 magnetization       0.0000000
 augmentation part      264.0000343 magnetization       0.0000000

 Free energy of the ion-electron system (eV)
  ---------------------------------------------------
  alpha Z        PSCENC =        87.14698976
  Ewald energy   TEWEN  =     21483.36875425
  -Hartree energ DENC   =    -34336.50457466
  -exchange      EXHF   =         0.00000000
  -V(xc)+E(xc)   XCENC  =      1043.58867298
  PAW double counting   =     24671.98382005   -24823.53133436
  entropy T*S    EENTRO =        -0.00437558
  eigenvalues    EBANDS =     -3680.08074743
  atomic energy  EATOM  =     15122.05844254
  Solvation  Ediel_sol  =         0.00000000
  ---------------------------------------------------
  free energy    TOTEN  =      -431.97435246 eV

  energy without entropy =     -431.96997689  energy(sigma->0) =     -431.97289394


--------------------------------------------------------------------------------------------------------




--------------------------------------- Iteration      1(   4)  ---------------------------------------


     EDDAV:  cpu time    132.2624: real time    132.3872
       DOS:  cpu time      0.0163: real time      0.0162
    --------------------------------------------
      LOOP:  cpu time    132.2787: real time    132.4035

 eigenvalue-minimisations  : 72464
 total energy-change (2. order) :-0.3631501E+02  (-0.3511384E+02)
 number of electron     264.0000343 magnetization       0.0000000
 augmentation part      264.0000343 magnetization       0.0000000

 Free energy of the ion-electron system (eV)
  ---------------------------------------------------
  alpha Z        PSCENC =        87.14698976
  Ewald energy   TEWEN  =     21483.36875425
  -Hartree energ DENC   =    -34336.50457466
  -exchange      EXHF   =         0.00000000
[...]
   0.100E+03 -.909E+02 -.105E-11   -.107E+03 0.938E+02 -.228E-15   0.605E+01 -.313E+01 -.827E-23   -.112E-02 0.137E-01 -.197E-11
   0.101E+03 -.922E+02 0.334E-11   -.107E+03 0.938E+02 -.563E-17   0.585E+01 -.307E+01 0.372E-23   -.113E-01 0.121E-01 -.542E-12
   -.909E+02 -.100E+03 0.885E-13   0.938E+02 0.107E+03 -.667E-15   -.313E+01 -.605E+01 -.116E-22   0.137E-01 0.112E-02 -.748E-12
   -.922E+02 -.101E+03 0.179E-11   0.938E+02 0.107E+03 -.682E-15   -.307E+01 -.585E+01 -.165E-23   0.121E-01 0.113E-01 -.442E-11
   0.909E+02 0.100E+03 0.459E-11   -.938E+02 -.107E+03 0.913E-17   0.313E+01 0.605E+01 0.112E-22   -.137E-01 -.112E-02 -.180E-11
   0.922E+02 0.101E+03 0.256E-11   -.938E+02 -.107E+03 0.350E-15   0.307E+01 0.585E+01 0.248E-23   -.121E-01 -.113E-01 -.948E-12
   -.109E+02 0.346E+02 0.297E-11   0.127E+02 -.350E+02 0.389E-16   -.173E+01 0.534E+00 0.414E-23   0.143E-02 -.676E-02 -.294E-11
   -.111E+02 0.346E+02 0.113E-12   0.127E+02 -.350E+02 -.555E-17   -.152E+01 0.330E+00 -.827E-23   0.106E-01 -.728E-02 -.751E-12
   0.109E+02 -.346E+02 0.238E-11   -.127E+02 0.350E+02 -.140E-15   0.173E+01 -.534E+00 0.476E-23   -.143E-02 0.676E-02 -.114E-11
   0.111E+02 -.346E+02 0.265E-11   -.127E+02 0.350E+02 -.109E-15   0.152E+01 -.330E+00 0.827E-23   -.106E-01 0.728E-02 -.101E-11
   -.346E+02 -.109E+02 -.505E-12   0.350E+02 0.127E+02 0.484E-15   -.534E+00 -.173E+01 -.165E-23   0.676E-02 0.143E-02 -.560E-12
   -.346E+02 -.111E+02 0.246E-11   0.350E+02 0.127E+02 -.813E-15   -.330E+00 -.152E+01 0.910E-23   0.728E-02 0.106E-01 -.197E-11
   0.346E+02 0.109E+02 -.321E-11   -.350E+02 -.127E+02 0.584E-15   0.534E+00 0.173E+01 0.496E-23   -.676E-02 -.143E-02 -.108E-11
   0.346E+02 0.111E+02 -.719E-12   -.350E+02 -.127E+02 -.502E-16   0.330E+00 0.152E+01 -.827E-23   -.728E-02 -.106E-01 -.748E-12
   -.829E+02 -.107E+03 -.173E-12   0.832E+02 0.110E+03 -.194E-15   -.388E+00 -.359E+01 0.744E-23   0.884E-02 -.420E-02 -.609E-12
   -.829E+02 -.107E+03 0.268E-11   0.832E+02 0.110E+03 -.523E-15   -.467E+00 -.356E+01 -.620E-24   0.388E-02 -.721E-02 -.204E-11
   0.829E+02 0.107E+03 0.290E-11   -.832E+02 -.110E+03 0.621E-15   0.388E+00 0.359E+01 -.265E-22   -.884E-02 0.420E-02 -.177E-11
   0.829E+02 0.107E+03 -.140E-11   -.832E+02 -.110E+03 -.152E-15   0.467E+00 0.356E+01 -.517E-24   -.388E-02 0.721E-02 -.759E-12
   0.107E+03 -.829E+02 -.421E-11   -.110E+03 0.832E+02 0.734E-16   0.359E+01 -.388E+00 0.132E-22   0.420E-02 0.884E-02 -.123E-11
   0.107E+03 -.829E+02 -.139E-12   -.110E+03 0.832E+02 -.707E-15   0.356E+01 -.467E+00 -.827E-24   0.721E-02 0.388E-02 -.416E-12
   -.107E+03 0.829E+02 0.252E-11   0.110E+03 -.832E+02 -.268E-15   -.359E+01 0.388E+00 -.298E-22   -.420E-02 -.884E-02 -.929E-12
   -.107E+03 0.829E+02 -.466E-11   0.110E+03 -.832E+02 0.390E-15   -.356E+01 0.467E+00 0.000E+00   -.721E-02 -.388E-02 -.129E-11
   -.111E+03 -.138E+03 -.208E-12   0.113E+03 0.139E+03 0.340E-15   -.133E+01 -.147E+01 -.383E-23   -.103E-02 0.482E-03 -.864E-12
   -.111E+03 -.138E+03 -.286E-11   0.113E+03 0.139E+03 -.319E-15   -.138E+01 -.142E+01 0.414E-23   -.710E-02 0.135E-02 -.739E-12
   0.111E+03 0.138E+03 0.263E-11   -.113E+03 -.139E+03 0.470E-15   0.133E+01 0.147E+01 0.248E-23   0.103E-02 -.482E-03 -.263E-11
   0.111E+03 0.138E+03 -.502E-12   -.113E+03 -.139E+03 -.270E-15   0.138E+01 0.142E+01 -.165E-23   0.710E-02 -.135E-02 -.937E-12
   0.138E+03 -.111E+03 -.197E-11   -.139E+03 0.113E+03 -.711E-16   0.147E+01 -.133E+01 0.827E-24   -.482E-03 -.103E-02 -.528E-12
   0.138E+03 -.111E+03 -.117E-11   -.139E+03 0.113E+03 -.290E-15   0.142E+01 -.138E+01 -.414E-23   -.135E-02 -.710E-02 -.328E-12
   -.138E+03 0.111E+03 0.456E-13   0.139E+03 -.113E+03 -.655E-15   -.147E+01 0.133E+01 -.879E-24   0.482E-03 0.103E-02 -.682E-12
   -.138E+03 0.111E+03 0.235E-11   0.139E+03 -.113E+03 0.182E-16   -.142E+01 0.138E+01 0.419E-23   0.135E-02 0.710E-02 -.205E-11
   -.363E+02 -.406E+02 -.344E-14   0.359E+02 0.468E+02 0.772E-16   0.333E+00 -.616E+01 -.672E-24   0.173E-02 -.124E-02 -.132E-12
   -.363E+02 -.406E+02 0.744E-12   0.359E+02 0.468E+02 0.204E-16   0.324E+00 -.617E+01 -.452E-24   0.973E-03 -.342E-02 -.606E-12
   0.363E+02 0.406E+02 -.114E-11   -.359E+02 -.468E+02 0.686E-17   -.333E+00 0.616E+01 0.620E-24   -.173E-02 0.124E-02 -.382E-12
   0.363E+02 0.406E+02 -.317E-12   -.359E+02 -.468E+02 0.366E-16   -.324E+00 0.617E+01 0.517E-25   -.973E-03 0.342E-02 -.159E-12
   0.406E+02 -.363E+02 0.117E-11   -.468E+02 0.359E+02 -.211E-15   0.616E+01 0.333E+00 0.207E-24   0.124E-02 0.173E-02 -.437E-12
   0.406E+02 -.363E+02 0.128E-12   -.468E+02 0.359E+02 -.335E-16   0.617E+01 0.324E+00 -.207E-24   0.342E-02 0.973E-03 -.103E-12
   -.406E+02 0.363E+02 0.538E-13   0.468E+02 -.359E+02 -.303E-16   -.616E+01 -.333E+00 -.801E-24   -.124E-02 -.173E-02 -.333E-12
   -.406E+02 0.363E+02 -.122E-11   0.468E+02 -.359E+02 0.113E-15   -.617E+01 -.324E+00 0.200E-24   -.342E-02 -.973E-03 -.292E-12
   -.557E+02 -.617E+02 -.815E-13   0.607E+02 0.648E+02 0.111E-15   -.504E+01 -.305E+01 0.124E-23   -.145E-02 -.971E-03 -.256E-12
   -.557E+02 -.617E+02 -.778E-12   0.607E+02 0.648E+02 -.144E-15   -.505E+01 -.305E+01 0.103E-24   -.255E-02 -.320E-03 -.160E-12
   0.557E+02 0.617E+02 0.761E-12   -.607E+02 -.648E+02 0.644E-16   0.504E+01 0.305E+01 0.724E-24   0.145E-02 0.971E-03 -.583E-12
   0.557E+02 0.617E+02 0.152E-13   -.607E+02 -.648E+02 0.415E-16   0.505E+01 0.305E+01 0.517E-25   0.255E-02 0.320E-03 -.204E-12
   0.617E+02 -.557E+02 0.278E-12   -.648E+02 0.607E+02 -.795E-17   0.305E+01 -.504E+01 0.146E-23   0.971E-03 -.145E-02 -.213E-12
   0.617E+02 -.557E+02 -.180E-12   -.648E+02 0.607E+02 0.228E-17   0.305E+01 -.505E+01 0.207E-24   0.320E-03 -.255E-02 -.663E-13
   -.617E+02 0.557E+02 0.590E-12   0.648E+02 -.607E+02 -.188E-15   -.305E+01 0.504E+01 0.207E-24   -.971E-03 0.145E-02 -.197E-12
   -.617E+02 0.557E+02 0.717E-12   0.648E+02 -.607E+02 -.248E-15   -.305E+01 0.505E+01 0.517E-24   -.320E-03 0.255E-02 -.506E-12
 -----------------------------------------------------------------------------------------------
   0.844E-06 0.569E-06 0.744E-10   -.455E-12 0.142E-13 0.104E-15   0.204E-13 0.977E-14 0.876E-22   -.126E-05 -.878E-06 -.113E-09
 
 
 POSITION                                       TOTAL-FORCE (eV/Angst)
 -----------------------------------------------------------------------------------
      0.00000      0.00000      7.50000        -0.000000     -0.000000      0.000000
      7.91539      7.91539      7.50000        -0.000000     -0.000000     -0.000000
      9.16162      6.58266      7.50000         0.446761     -0.403486     -0.000000
      1.24624     14.49805      7.50000         1.093534     -1.982721     -0.000000
      6.66915      9.24811      7.50000        -0.446761      0.403486      0.000000
     14.58454      1.33272      7.50000        -1.093534      1.982721      0.000000
      1.33272      1.24624      7.50000         0.403486      0.446761      0.000000
      9.24811      9.16162      7.50000         1.982721      1.093534     -0.000000
     14.49805     14.58454      7.50000        -0.403486     -0.446761     -0.000000
      6.58266      6.66915      7.50000        -1.982721     -1.093534      0.000000
      8.27744      4.50817      7.50000        -0.088728     -0.116600     -0.000000
      0.36205     12.42356      7.50000        -0.295924     -0.346921      0.000000
      7.55334     11.32261      7.50000         0.088728      0.116600      0.000000
     15.46873      3.40722      7.50000         0.295924      0.346921     -0.000000
      3.40722      0.36205      7.50000         0.116600     -0.088728     -0.000000
     11.32261      8.27744      7.50000         0.346921     -0.295924     -0.000000
     12.42356     15.46873      7.50000        -0.116600      0.088728      0.000000
      4.50817      7.55334      7.50000        -0.346921      0.295924      0.000000
      9.27379      5.21316      7.50000         0.015252      0.206343     -0.000000
      1.35840     13.12855      7.50000         0.159665      1.383950     -0.000000
      6.55699     10.61761      7.50000        -0.015252     -0.206343      0.000000
     14.47238      2.70223      7.50000        -0.159665     -1.383950      0.000000
      2.70223      1.35840      7.50000        -0.206343      0.015252      0.000000
     10.61761      9.27379      7.50000        -1.383950      0.159665      0.000000
     13.12855     14.47238      7.50000         0.206343     -0.015252     -0.000000
      5.21316      6.55699      7.50000         1.383950     -0.159665      0.000000
     10.63580      4.61276      7.50000         0.006920      0.054550     -0.000000
      2.72041     12.52815      7.50000         0.080270     -0.114672     -0.000000
      5.19498     11.21802      7.50000        -0.006920     -0.054550     -0.000000
     13.11037      3.30263      7.50000        -0.080270      0.114672      0.000000
      3.30263      2.72041      7.50000        -0.054550      0.006920     -0.000000
     11.21802     10.63580      7.50000         0.114672      0.080270      0.000000
     12.52815     13.11037      7.50000         0.054550     -0.006920     -0.000000
      4.61276      5.19498      7.50000        -0.114672     -0.080270      0.000000
      3.90860     13.27518      7.50000        -0.044120     -0.000239     -0.000000
     11.82398      5.35979      7.50000        -0.083198      0.038074      0.000000
     11.92218      2.55559      7.50000         0.044120      0.000239      0.000000
      4.00679     10.47098      7.50000         0.083198     -0.038074     -0.000000
     10.47098     11.82398      7.50000         0.000239     -0.044120      0.000000
      2.55559      3.90860      7.50000        -0.038074     -0.083198     -0.000000
      5.35979      4.00679      7.50000        -0.000239      0.044120     -0.000000
     13.27518     11.92218      7.50000         0.038074      0.083198      0.000000
      5.13267     12.62336      7.50000         0.039888     -0.024698      0.000000
     13.04806      4.70798      7.50000         0.068359     -0.104213      0.000000
     10.69811      3.20741      7.50000        -0.039888      0.024698     -0.000000
      2.78272     11.12280      7.50000        -0.068359      0.104213     -0.000000
     11.12280     13.04806      7.50000         0.024698      0.039888      0.000000
      3.20741      5.13267      7.50000         0.104213      0.068359     -0.000000
      4.70798      2.78272      7.50000        -0.024698     -0.039888      0.000000
     12.62336     10.69811      7.50000        -0.104213     -0.068359     -0.000000
      3.85995     14.35773      7.50000        -0.014670     -0.017373      0.000000
     11.77534      6.44234      7.50000        -0.012558      0.007167      0.000000
     11.97082      1.47304      7.50000         0.014670      0.017373     -0.000000
      4.05543      9.38843      7.50000         0.012558     -0.007167     -0.000000
      9.38843     11.77534      7.50000         0.017373     -0.014670      0.000000
      1.47304      3.85995      7.50000        -0.007167     -0.012558     -0.000000
      6.44234      4.05543      7.50000        -0.017373      0.014670     -0.000000
     14.35773     11.97082      7.50000         0.007167      0.012558      0.000000
      6.06064     13.19428      7.50000        -0.002719     -0.001150     -0.000000
     13.97603      5.27889      7.50000        -0.000116     -0.000965     -0.000000
      9.77014      2.63649      7.50000         0.002719      0.001150      0.000000
      1.85475     10.55188      7.50000         0.000116      0.000965     -0.000000
     10.55188     13.97603      7.50000         0.001150     -0.002719     -0.000000
      2.63649      6.06064      7.50000         0.000965     -0.000116     -0.000000
      5.27889      1.85475      7.50000        -0.001150      0.002719     -0.000000
     13.19428      9.77014      7.50000        -0.000965      0.000116     -0.000000
 -----------------------------------------------------------------------------------
    total drift:                               -0.000000     -0.000000     -0.000000


--------------------------------------------------------------------------------------------------------



  FREE ENERGIE OF THE ION-ELECTRON SYSTEM (eV)
  ---------------------------------------------------
  free  energy   TOTEN  =      -469.38079092 eV

  energy  without entropy=     -469.47895122  energy(sigma->0) =     -469.41351102
 


--------------------------------------------------------------------------------------------------------


    POTLOK:  cpu time      0.1762: real time      0.1790


--------------------------------------------------------------------------------------------------------


     LOOP+:  cpu time   1655.1325: real time   1659.3428
    4ORBIT:  cpu time      0.0000: real time      0.0000



 total charge

# of ion       s       p       d       tot
------------------------------------------
    1        0.348   6.415   3.999  10.762
    2        0.348   6.415   3.999  10.762
    3        1.573   3.518   0.000   5.091
    4        1.568   3.534   0.000   5.102
    5        1.573   3.518   0.000   5.091
    6        1.568   3.534   0.000   5.102
    7        1.573   3.518   0.000   5.091
    8        1.568   3.534   0.000   5.102
    9        1.573   3.518   0.000   5.091
   10        1.568   3.534   0.000   5.102
   11        1.596   3.543   0.000   5.140
   12        1.596   3.546   0.000   5.142
   13        1.596   3.543   0.000   5.140
   14        1.596   3.546   0.000   5.142
   15        1.596   3.543   0.000   5.140
   16        1.596   3.546   0.000   5.142
   17        1.596   3.543   0.000   5.140
   18        1.596   3.546   0.000   5.142
   19        0.870   1.680   0.000   2.550
   20        0.868   1.680   0.000   2.548
   21        0.870   1.680   0.000   2.550
   22        0.868   1.680   0.000   2.548
   23        0.870   1.680   0.000   2.550
   24        0.868   1.680   0.000   2.548
   25        0.870   1.680   0.000   2.550
   26        0.868   1.680   0.000   2.548
   27        0.866   1.770   0.000   2.636
   28        0.867   1.767   0.000   2.635
   29        0.866   1.770   0.000   2.636
   30        0.867   1.767   0.000   2.635
   31        0.866   1.770   0.000   2.636
   32        0.867   1.767   0.000   2.635
   33        0.866   1.770   0.000   2.636
   34        0.867   1.767   0.000   2.635
   35        0.876   1.779   0.000   2.656
   36        0.877   1.779   0.000   2.655
   37        0.876   1.779   0.000   2.656
   38        0.877   1.779   0.000   2.655
   39        0.876   1.779   0.000   2.656
   40        0.877   1.779   0.000   2.655
   41        0.876   1.779   0.000   2.656
   42        0.877   1.779   0.000   2.655
   43        0.874   1.770   0.000   2.644
   44        0.874   1.771   0.000   2.644
   45        0.874   1.770   0.000   2.644
   46        0.874   1.771   0.000   2.644
   47        0.874   1.770   0.000   2.644
   48        0.874   1.771   0.000   2.644
   49        0.874   1.770   0.000   2.644
   50        0.874   1.771   0.000   2.644
   51        0.636   0.055   0.000   0.690
   52        0.635   0.055   0.000   0.690
   53        0.636   0.055   0.000   0.690
   54        0.635   0.055   0.000   0.690
   55        0.636   0.055   0.000   0.690
   56        0.635   0.055   0.000   0.690
   57        0.636   0.055   0.000   0.690
   58        0.635   0.055   0.000   0.690
   59        0.642   0.047   0.000   0.689
   60        0.642   0.047   0.000   0.689
   61        0.642   0.047   0.000   0.689
   62        0.642   0.047   0.000   0.689
   63        0.642   0.047   0.000   0.689
   64        0.642   0.047   0.000   0.689
   65        0.642   0.047   0.000   0.689
   66        0.642   0.047   0.000   0.689
--------------------------------------------------
tot         64.135 126.190   7.997 198.322



 magnetization (x)

# of ion       s       p       d       tot
------------------------------------------
    1        0.074   0.023   2.317   2.414
    2       -0.074  -0.023  -2.317  -2.414
    3        0.002   0.110   0.000   0.112
    4       -0.001  -0.043   0.000  -0.044
    5        0.002   0.110   0.000   0.112
    6       -0.001  -0.043   0.000  -0.044
    7       -0.002  -0.110   0.000  -0.112
    8        0.001   0.043   0.000   0.044
    9       -0.002  -0.110   0.000  -0.112
   10        0.001   0.043   0.000   0.044
   11        0.001   0.067   0.000   0.068
   12       -0.001  -0.071   0.000  -0.072
   13        0.001   0.067   0.000   0.068
   14       -0.001  -0.071   0.000  -0.072
   15       -0.001  -0.067   0.000  -0.068
   16        0.001   0.071   0.000   0.072
   17       -0.001  -0.067   0.000  -0.068
   18        0.001   0.071   0.000   0.072
   19       -0.002  -0.010   0.000  -0.012
   20        0.002   0.009   0.000   0.011
   21       -0.002  -0.010   0.000  -0.012
   22        0.002   0.009   0.000   0.011
   23        0.002   0.010   0.000   0.012
   24       -0.002  -0.009   0.000  -0.011
   25        0.002   0.010   0.000   0.012
   26       -0.002  -0.009   0.000  -0.011
   27        0.001   0.008   0.000   0.009
   28       -0.001  -0.002   0.000  -0.003
   29        0.001   0.008   0.000   0.009
   30       -0.001  -0.002   0.000  -0.003
   31       -0.001  -0.008   0.000  -0.009
   32        0.001   0.002   0.000   0.003
   33       -0.001  -0.008   0.000  -0.009
   34        0.001   0.002   0.000   0.003
   35        0.000   0.003   0.000   0.004
   36        0.000   0.002   0.000   0.002
   37        0.000   0.003   0.000   0.004
   38        0.000   0.002   0.000   0.002
   39       -0.000  -0.003   0.000  -0.004
   40       -0.000  -0.002   0.000  -0.002
   41       -0.000  -0.003   0.000  -0.004
   42       -0.000  -0.002   0.000  -0.002
   43       -0.000  -0.002   0.000  -0.003
   44       -0.000   0.000   0.000   0.000
   45       -0.000  -0.002   0.000  -0.003
   46       -0.000   0.000   0.000   0.000
   47        0.000   0.002   0.000   0.003
   48        0.000  -0.000   0.000  -0.000
   49        0.000   0.002   0.000   0.003
   50        0.000  -0.000   0.000  -0.000
   51       -0.000   0.000   0.000   0.000
   52       -0.000  -0.000   0.000  -0.000
   53       -0.000   0.000   0.000   0.000
   54       -0.000  -0.000   0.000  -0.000
   55        0.000  -0.000   0.000  -0.000
   56        0.000   0.000   0.000   0.000
   57        0.000  -0.000   0.000  -0.000
   58        0.000   0.000   0.000   0.000
   59       -0.000   0.000   0.000  -0.000
   60       -0.000  -0.000   0.000  -0.000
   61       -0.000   0.000   0.000  -0.000
   62       -0.000  -0.000   0.000  -0.000
   63        0.000  -0.000   0.000   0.000
   64        0.000   0.000   0.000   0.000
   65        0.000  -0.000   0.000   0.000
   66        0.000   0.000   0.000   0.000
--------------------------------------------------
tot          0.000   0.000   0.000   0.000
 

 total amount of memory used by VASP MPI-rank0  1040756. kBytes
=======================================================================

   base      :      30000. kBytes
   nonlr-proj:       2345. kBytes
   fftplans  :      10064. kBytes
   grid      :      25159. kBytes
   one-center:        186. kBytes
   wavefun   :     973002. kBytes
 
  
  
 General timing and accounting informations for this job:
 ========================================================
  
                  Total CPU time used (sec):     1804.373
                            User time (sec):     1790.160
                          System time (sec):       14.213
                         Elapsed time (sec):     1812.724
  
                   Maximum memory used (kb):     1388184.
                   Average memory used (kb):          N/A
  
                          Minor page faults:       217728
                          Major page faults:           49
                 Voluntary context switches:        80614
