 vasp.6.3.2 27Jun22 (build Aug 02 2025 14:55:03) complex                        
  
 executed on             LinuxIFC date 2025.11.28  15:55:04
 running on   48 total cores
 distrk:  each k-point on   48 cores,    1 groups
 distr:  one band on NCORE=  12 cores,    4 groups


--------------------------------------------------------------------------------------------------------


 INCAR:
   PREC = Normal
   ENCUT = 500
   IBRION = -1
   ISPIN = 2
   MAGMOM = 5 -5 4*1 4*-1 4*1 4*-1 4*1 4*-1 4*1 4*-1 4*1 4*-1 4*1 4*-1 4*1 4*-1 4*1 4*-1 4*1 4*-1 4*1 4*-1 4*1 4*-1 4*1 4*-1 4*1 4*-1 4*1 4*-1 4*1 4*-1 4*1 4*-1 4*1 4*-1 4*1 4*-1 4*1 4*-1 4*1 4*-1 4*1 4*-1 4*1 4*-1 4*1 4*-1 4*1 4*-1 4*1 4*-1 4*1 4*-1 4*1 4*-1 4*1 4*-1 4*1 4*-1 4*1 4*-1 4*1 4*-1 4*1 4*-1 4*1 4*-1 4*1 4*-1 4*1 4*-1 4*1 4*-1 4*1 4*-1 4*1 4*-1 4*1 4*-1
   NSW = 0
   NELM = 200
   ISIF = 2
   EDIFF = 1E-5
   EDIFFG = -0.01
   ALGO = Fast
   ISTART = 1
   ICHARG = 11
   LREAL = Auto
   LWAVE = .F.
   LCHARG = .F.
   LVTOT = .T.
   NPAR = 4
   AMIX = 0.2
   BMIX = 0.0001
   AMIX_MAG = 0.8
   BMIX_MAG = 0.0001
   LDAU = .TRUE.
   LDAUTYPE = 2
   LDAUL = 2 -1 -1 -1 -1 -1
   LDAUU = 3.0 0 0 0 0 0
   LDAUJ = 1.0 0 0 0 0 0
   LMAXMIX = 4
   LORBIT = 11

 POTCAR:    PAW_PBE Cr_pv 02Aug2007               
 POTCAR:    PAW_PBE H 15Jun2001                   
 POTCAR:    PAW_PBE C 08Apr2002                   
 POTCAR:    PAW_PBE N 08Apr2002                   
 WARNING: For LVTOT=.TRUE., VASP.5.x writes the TOTAL local potential to the
     file LOCPOT. If you want only the Hartree contributions, use LVHAR=.TRUE.
     instead. 

 POTCAR:    PAW_PBE Cr_pv 02Aug2007               
   SHA256 =  c9a7df34d3cdbacf1090e328ef39c0b420964e11c23f63548d1ac9dd218cdba0 Cr_pv/POTCAR          
   COPYR  = (c) Copyright 02Aug2007 Georg Kresse                                                    
   COPYR  = This file is part of the software VASP. Any use, copying, and all other rights are regul
   COPYR  = If you do not have a valid VASP license, you may not use, copy or distribute this file. 
   VRHFIN =Cr : p6d5s1                                                                              
   LEXCH  = PE                                                                                      
   EATOM  =  1647.9177 eV,  121.1185 Ry                                                             
                                                                                                    
   TITEL  = PAW_PBE Cr_pv 02Aug2007                                                                 
   LULTRA =        F    use ultrasoft PP ?                                                          
   IUNSCR =        1    unscreen: 0-lin 1-nonlin 2-no                                               
   RPACOR =    2.080    partial core radius                                                         
   POMASS =   51.996; ZVAL   =   12.000    mass and valenz                                          
   RCORE  =    2.300    outmost cutoff radius                                                       
   RWIGS  =    2.500; RWIGS  =    1.323    wigner-seitz radius (au A)                               
   ENMAX  =  265.681; ENMIN  =  199.261 eV                                                          
   ICORE  =        3    local potential                                                             
   LCOR   =        T    correct aug charges                                                         
   LPAW   =        T    paw PP                                                                      
   EAUG   =  519.424                                                                                
   DEXC   =    0.000                                                                                
   RMAX   =    2.356    core radius for proj-oper                                                   
   RAUG   =    1.300    factor for augmentation sphere                                              
   RDEP   =    2.447    radius for radial grids                                                     
   RDEPT  =    1.882    core radius for aug-charge                                                  
                                                                                                    
   Atomic configuration                                                                             
    8 entries                                                                                       
     n  l   j            E        occ.                                                              
     1  0  0.50     -5880.4963   2.0000                                                             
     2  0  0.50      -667.0865   2.0000                                                             
     2  1  1.50      -560.6250   6.0000                                                             
     3  0  0.50       -73.9860   2.0000                                                             
     3  1  1.50       -45.4378   6.0000                                                             
     3  2  2.50        -2.9137   5.0000                                                             
     4  0  0.50        -4.0071   1.0000                                                             
     4  3  2.50        -1.3606   0.0000                                                             
   Description                                                                                      
     l       E           TYP  RCUT    TYP  RCUT                                                     
     1    -45.4377911     23  2.000                                                                 
     1      1.3605826     23  2.000                                                                 
     2     -2.9136672     23  2.300                                                                 
     2     -4.2742498     23  2.300                                                                 
     0     -4.0071320     23  2.300                                                                 
     0      9.4498803     23  2.300                                                                 
     3      2.7211652     23  2.300                                                                 
  local pseudopotential read in
  partial core-charges read in
  partial kinetic energy density read in
  atomic valenz-charges read in
  non local Contribution for L=           1  read in
    real space projection operators read in
  non local Contribution for L=           1  read in
    real space projection operators read in
  non local Contribution for L=           2  read in
    real space projection operators read in
  non local Contribution for L=           2  read in
    real space projection operators read in
  non local Contribution for L=           0  read in
    real space projection operators read in
  non local Contribution for L=           0  read in
    real space projection operators read in
    PAW grid and wavefunctions read in
 
   number of l-projection  operators is LMAX  =           6
   number of lm-projection operators is LMMAX =          18
 
 POTCAR:    PAW_PBE H 15Jun2001                   
   SHA256 =  030f79b5d3ab3cf0e668861823c8fb652ff669f3e15e46930bd03bfd63a607b6 H/POTCAR              
   COPYR  = (c) Copyright 15Jun2001 Georg Kresse                                                    
   COPYR  = This file is part of the software VASP. Any use, copying, and all other rights are regul
   COPYR  = If you do not have a valid VASP license, you may not use, copy or distribute this file. 
   VRHFIN =H: ultrasoft test                                                                        
   LEXCH  = PE                                                                                      
   EATOM  =    12.4884 eV,    0.9179 Ry                                                             
                                                                                                    
   TITEL  = PAW_PBE H 15Jun2001                                                                     
   LULTRA =        F    use ultrasoft PP ?                                                          
   IUNSCR =        0    unscreen: 0-lin 1-nonlin 2-no                                               
   RPACOR =    0.000    partial core radius                                                         
   POMASS =    1.000; ZVAL   =    1.000    mass and valenz                                          
   RCORE  =    1.100    outmost cutoff radius                                                       
   RWIGS  =    0.700; RWIGS  =    0.370    wigner-seitz radius (au A)                               
   ENMAX  =  250.000; ENMIN  =  200.000 eV                                                          
   RCLOC  =    0.701    cutoff for local pot                                                        
   LCOR   =        T    correct aug charges                                                         
   LPAW   =        T    paw PP                                                                      
   EAUG   =  400.000                                                                                
   RMAX   =    1.123    core radius for proj-oper                                                   
   RAUG   =    1.200    factor for augmentation sphere                                              
   RDEP   =    1.112    radius for radial grids                                                     
   RDEPT  =    0.926    core radius for aug-charge                                                  
                                                                                                    
   Atomic configuration                                                                             
    2 entries                                                                                       
     n  l   j            E        occ.                                                              
     1  0  0.50        -6.4927   1.0000                                                             
     2  1  0.50        -3.4015   0.0000                                                             
   Description                                                                                      
     l       E           TYP  RCUT    TYP  RCUT                                                     
     0     -6.4927494     23  1.100                                                                 
     0      6.8029130     23  1.100                                                                 
     1     -4.0817478     23  1.100                                                                 
  local pseudopotential read in
  atomic valenz-charges read in
  non local Contribution for L=           0  read in
    real space projection operators read in
  non local Contribution for L=           0  read in
    real space projection operators read in
  non local Contribution for L=           1  read in
    real space projection operators read in
    PAW grid and wavefunctions read in
 
   number of l-projection  operators is LMAX  =           3
   number of lm-projection operators is LMMAX =           5
 
 POTCAR:    PAW_PBE C 08Apr2002                   
   SHA256 =  253f7b50bb8d59471dbedb8285d89021f4a42ed1a2c5d38a03a736e69125dd95 C/POTCAR              
   COPYR  = (c) Copyright 08Apr2002 Georg Kresse                                                    
   COPYR  = This file is part of the software VASP. Any use, copying, and all other rights are regul
   COPYR  = If you do not have a valid VASP license, you may not use, copy or distribute this file. 
   VRHFIN =C: s2p2                                                                                  
   LEXCH  = PE                                                                                      
   EATOM  =   147.1560 eV,   10.8157 Ry                                                             
                                                                                                    
   TITEL  = PAW_PBE C 08Apr2002                                                                     
   LULTRA =        F    use ultrasoft PP ?                                                          
   IUNSCR =        1    unscreen: 0-lin 1-nonlin 2-no                                               
   RPACOR =    1.200    partial core radius                                                         
   POMASS =   12.011; ZVAL   =    4.000    mass and valenz                                          
   RCORE  =    1.500    outmost cutoff radius                                                       
   RWIGS  =    1.630; RWIGS  =    0.863    wigner-seitz radius (au A)                               
   ENMAX  =  400.000; ENMIN  =  300.000 eV                                                          
   ICORE  =        2    local potential                                                             
   LCOR   =        T    correct aug charges                                                         
   LPAW   =        T    paw PP                                                                      
   EAUG   =  644.873                                                                                
   DEXC   =    0.000                                                                                
   RMAX   =    1.529    core radius for proj-oper                                                   
   RAUG   =    1.300    factor for augmentation sphere                                              
   RDEP   =    1.501    radius for radial grids                                                     
   RDEPT  =    1.300    core radius for aug-charge                                                  
                                                                                                    
   Atomic configuration                                                                             
    4 entries                                                                                       
     n  l   j            E        occ.                                                              
     1  0  0.50      -273.3789   2.0000                                                             
     2  0  0.50       -13.7508   2.0000                                                             
     2  1  0.50        -5.2854   2.0000                                                             
     3  2  1.50        -5.4423   0.0000                                                             
   Description                                                                                      
     l       E           TYP  RCUT    TYP  RCUT                                                     
     0    -13.7508458     23  1.200                                                                 
     0     -8.2022199     23  1.200                                                                 
     1     -5.2854383     23  1.500                                                                 
     1     34.0145650     23  1.500                                                                 
     2     -5.4423304      7  1.500                                                                 
  local pseudopotential read in
  partial core-charges read in
  partial kinetic energy density read in
  atomic valenz-charges read in
  non local Contribution for L=           0  read in
    real space projection operators read in
  non local Contribution for L=           0  read in
    real space projection operators read in
  non local Contribution for L=           1  read in
    real space projection operators read in
  non local Contribution for L=           1  read in
    real space projection operators read in
    PAW grid and wavefunctions read in
 
   number of l-projection  operators is LMAX  =           4
   number of lm-projection operators is LMMAX =           8
 
 POTCAR:    PAW_PBE N 08Apr2002                   
   SHA256 =  e053789ff3a61a86a1b75d8a110fcc91f86041011e7b0817c7c99e4e8a6349d7 N/POTCAR              
   COPYR  = (c) Copyright 08Apr2002 Georg Kresse                                                    
   COPYR  = This file is part of the software VASP. Any use, copying, and all other rights are regul
   COPYR  = If you do not have a valid VASP license, you may not use, copy or distribute this file. 
   VRHFIN =N: s2p3                                                                                  
   LEXCH  = PE                                                                                      
   EATOM  =   264.5486 eV,   19.4438 Ry                                                             
                                                                                                    
   TITEL  = PAW_PBE N 08Apr2002                                                                     
   LULTRA =        F    use ultrasoft PP ?                                                          
   IUNSCR =        1    unscreen: 0-lin 1-nonlin 2-no                                               
   RPACOR =    1.200    partial core radius                                                         
   POMASS =   14.001; ZVAL   =    5.000    mass and valenz                                          
   RCORE  =    1.500    outmost cutoff radius                                                       
   RWIGS  =    1.400; RWIGS  =    0.741    wigner-seitz radius (au A)                               
   ENMAX  =  400.000; ENMIN  =  300.000 eV                                                          
   ICORE  =        2    local potential                                                             
   LCOR   =        T    correct aug charges                                                         
   LPAW   =        T    paw PP                                                                      
   EAUG   =  627.112                                                                                
   DEXC   =    0.000                                                                                
   RMAX   =    1.529    core radius for proj-oper                                                   
   RAUG   =    1.300    factor for augmentation sphere                                              
   RDEP   =    1.514    radius for radial grids                                                     
   RDEPT  =    1.338    core radius for aug-charge                                                  
                                                                                                    
   Atomic configuration                                                                             
    4 entries                                                                                       
     n  l   j            E        occ.                                                              
     1  0  0.50      -384.7179   2.0000                                                             
     2  0  0.50       -18.5828   2.0000                                                             
     2  1  0.50        -7.0898   3.0000                                                             
     3  2  1.50        -6.8029   0.0000                                                             
   Description                                                                                      
     l       E           TYP  RCUT    TYP  RCUT                                                     
     0    -18.5828119     23  1.200                                                                 
     0    -13.5018863     23  1.200                                                                 
     1     -7.0897853     23  1.500                                                                 
     1      9.5240782     23  1.500                                                                 
     2     -6.8029130      7  1.500                                                                 
  local pseudopotential read in
  partial core-charges read in
  partial kinetic energy density read in
  atomic valenz-charges read in
  non local Contribution for L=           0  read in
    real space projection operators read in
  non local Contribution for L=           0  read in
    real space projection operators read in
  non local Contribution for L=           1  read in
    real space projection operators read in
  non local Contribution for L=           1  read in
    real space projection operators read in
    PAW grid and wavefunctions read in
 
   number of l-projection  operators is LMAX  =           4
   number of lm-projection operators is LMMAX =           8
 
 Optimization of the real space projectors (new method)

 maximal supplied QI-value         = 16.25
 optimisation between [QCUT,QGAM] = [ 11.38, 22.75] = [ 36.24,144.96] Ry 
 Optimized for a Real-space Cutoff    1.31 Angstroem

   l    n(q)    QCUT    max X(q) W(low)/X(q) W(high)/X(q)  e(spline) 
   1      8    11.376     3.262    0.15E-03    0.36E-03    0.86E-07
   1      8    11.376     5.741    0.39E-03    0.84E-03    0.21E-06
   2      8    11.376    60.438    0.39E-03    0.55E-03    0.20E-06
   2      8    11.376    55.380    0.40E-03    0.57E-03    0.20E-06
   0      9    11.376    80.273    0.17E-03    0.16E-03    0.48E-07
   0      9    11.376    36.654    0.15E-03    0.14E-03    0.43E-07
 Optimization of the real space projectors (new method)

 maximal supplied QI-value         = 34.20
 optimisation between [QCUT,QGAM] = [ 11.29, 22.57] = [ 35.68,142.71] Ry 
 Optimized for a Real-space Cutoff    1.16 Angstroem

   l    n(q)    QCUT    max X(q) W(low)/X(q) W(high)/X(q)  e(spline) 
   0      8    11.287    19.460    0.40E-03    0.73E-03    0.16E-06
   0      8    11.287    12.209    0.38E-03    0.70E-03    0.15E-06
   1      7    11.287     4.655    0.22E-03    0.25E-04    0.22E-06
 Optimization of the real space projectors (new method)

 maximal supplied QI-value         = 25.13
 optimisation between [QCUT,QGAM] = [ 11.31, 22.87] = [ 35.82,146.48] Ry 
 Optimized for a Real-space Cutoff    1.00 Angstroem

   l    n(q)    QCUT    max X(q) W(low)/X(q) W(high)/X(q)  e(spline) 
   0      7    11.310   115.676    0.43E-03    0.13E-02    0.19E-06
   0      7    11.310    87.132    0.43E-03    0.13E-02    0.18E-06
   1      6    11.310     4.429    0.42E-03    0.74E-03    0.11E-06
   1      6    11.310     2.733    0.34E-03    0.55E-03    0.92E-07
 Optimization of the real space projectors (new method)

 maximal supplied QI-value         = 25.13
 optimisation between [QCUT,QGAM] = [ 11.31, 22.87] = [ 35.82,146.48] Ry 
 Optimized for a Real-space Cutoff    1.27 Angstroem

   l    n(q)    QCUT    max X(q) W(low)/X(q) W(high)/X(q)  e(spline) 
   0      9    11.310    79.467    0.75E-04    0.16E-03    0.36E-06
   0      9    11.310    66.151    0.74E-04    0.16E-03    0.36E-06
   1      8    11.310    17.416    0.35E-03    0.12E-03    0.95E-06
   1      8    11.310    12.382    0.37E-03    0.13E-03    0.98E-06
  PAW_PBE Cr_pv 02Aug2007               :
 energy of atom  1       EATOM=-1647.9177
 kinetic energy error for atom=    0.0061 (will be added to EATOM!!)
  PAW_PBE H 15Jun2001                   :
 energy of atom  2       EATOM=  -12.4884
 kinetic energy error for atom=    0.0020 (will be added to EATOM!!)
  PAW_PBE C 08Apr2002                   :
 energy of atom  3       EATOM= -147.1560
 kinetic energy error for atom=    0.0076 (will be added to EATOM!!)
  PAW_PBE N 08Apr2002                   :
 energy of atom  4       EATOM= -264.5486
 kinetic energy error for atom=    0.0138 (will be added to EATOM!!)
 
 
 POSCAR: Cartesian coordinates
  positions in direct lattice
  No initial velocities read in
 exchange correlation table for  LEXCH =        8
   RHO(1)=    0.500       N(1)  =     2000
   RHO(2)=  100.500       N(2)  =     4000
 


--------------------------------------------------------------------------------------------------------


 ion  position               nearest neighbor table
   1  0.000  0.000  0.500-  51 2.25  54 2.25  55 2.25  58 2.25
   2  0.500  0.500  0.500-  52 2.25  53 2.25  56 2.25  57 2.25
   3  0.212  0.980  0.500-  19 1.09
   4  0.712  0.480  0.500-  20 1.09
   5  0.788  0.020  0.500-  21 1.09
   6  0.288  0.520  0.500-  22 1.09
   7  0.520  0.712  0.500-  23 1.09
   8  0.020  0.212  0.500-  24 1.09
   9  0.480  0.288  0.500-  25 1.09
  10  0.980  0.788  0.500-  26 1.09
  11  0.370  0.859  0.500-  43 1.09
  12  0.870  0.359  0.500-  44 1.09
  13  0.630  0.141  0.500-  45 1.09
  14  0.130  0.641  0.500-  46 1.09
  15  0.641  0.870  0.500-  47 1.09
  16  0.141  0.370  0.500-  48 1.09
  17  0.359  0.130  0.500-  49 1.09
  18  0.859  0.630  0.500-  50 1.09
  19  0.189  0.915  0.500-   3 1.09  51 1.37  27 1.41
  20  0.689  0.415  0.500-   4 1.09  52 1.37  28 1.41
  21  0.811  0.085  0.500-   5 1.09  54 1.37  29 1.41
  22  0.311  0.585  0.500-   6 1.09  53 1.37  30 1.41
  23  0.585  0.689  0.500-   7 1.09  56 1.37  31 1.41
  24  0.085  0.189  0.500-   8 1.09  55 1.37  32 1.41
  25  0.415  0.311  0.500-   9 1.09  57 1.37  33 1.41
  26  0.915  0.811  0.500-  10 1.09  58 1.37  34 1.41
  27  0.233  0.837  0.500-  43 1.41  19 1.41  36 1.44
  28  0.733  0.337  0.500-  44 1.41  20 1.41  35 1.44
  29  0.767  0.163  0.500-  45 1.41  21 1.41  38 1.44
  30  0.267  0.663  0.500-  46 1.41  22 1.41  37 1.44
  31  0.663  0.733  0.500-  47 1.41  23 1.41  40 1.44
  32  0.163  0.233  0.500-  48 1.41  24 1.41  39 1.44
  33  0.337  0.267  0.500-  49 1.41  25 1.41  42 1.44
  34  0.837  0.767  0.500-  50 1.41  26 1.41  41 1.44
  35  0.665  0.275  0.500-  59 1.36  45 1.40  28 1.44
  36  0.165  0.775  0.500-  60 1.36  46 1.40  27 1.44
  37  0.335  0.725  0.500-  61 1.36  43 1.40  30 1.44
  38  0.835  0.225  0.500-  62 1.36  44 1.40  29 1.44
  39  0.225  0.165  0.500-  63 1.36  49 1.40  32 1.44
  40  0.725  0.665  0.500-  64 1.36  50 1.40  31 1.44
  41  0.775  0.835  0.500-  65 1.36  47 1.40  34 1.44
  42  0.275  0.335  0.500-  66 1.36  48 1.40  33 1.44
  43  0.319  0.813  0.500-  11 1.09  37 1.40  27 1.41
  44  0.819  0.313  0.500-  12 1.09  38 1.40  28 1.41
  45  0.681  0.187  0.500-  13 1.09  35 1.40  29 1.41
  46  0.181  0.687  0.500-  14 1.09  36 1.40  30 1.41
  47  0.687  0.819  0.500-  15 1.09  41 1.40  31 1.41
  48  0.187  0.319  0.500-  16 1.09  42 1.40  32 1.41
  49  0.313  0.181  0.500-  17 1.09  39 1.40  33 1.41
  50  0.813  0.681  0.500-  18 1.09  40 1.40  34 1.41
  51  0.103  0.901  0.500-  60 1.36  19 1.37   1 2.25
  52  0.603  0.401  0.500-  59 1.36  20 1.37   2 2.25
  53  0.397  0.599  0.500-  61 1.36  22 1.37   2 2.25
  54  0.897  0.099  0.500-  62 1.36  21 1.37   1 2.25
  55  0.099  0.103  0.500-  63 1.36  24 1.37   1 2.25
  56  0.599  0.603  0.500-  64 1.36  23 1.37   2 2.25
  57  0.401  0.397  0.500-  66 1.36  25 1.37   2 2.25
  58  0.901  0.897  0.500-  65 1.36  26 1.37   1 2.25
  59  0.589  0.315  0.500-  35 1.36  52 1.36
  60  0.089  0.815  0.500-  36 1.36  51 1.36
  61  0.411  0.685  0.500-  37 1.36  53 1.36
  62  0.911  0.185  0.500-  38 1.36  54 1.36
  63  0.185  0.089  0.500-  39 1.36  55 1.36
  64  0.685  0.589  0.500-  40 1.36  56 1.36
  65  0.815  0.911  0.500-  41 1.36  58 1.36
  66  0.315  0.411  0.500-  42 1.36  57 1.36
 
  LATTYP: Found a simple tetragonal cell.
 ALAT       =    15.7342205048
 C/A-ratio  =     1.1090421047
  
  Lattice vectors:
  
 A1 = (  15.7342205048,  -0.0000000018,   0.0000000000)
 A2 = (   0.0000000018,  15.7342205048,   0.0000000000)
 A3 = (   0.0000000000,   0.0000000000,  17.4499130249)


Analysis of symmetry for initial positions (statically):
=====================================================================
 Subroutine PRICEL returns following result:
 
  LATTYP: Found a simple tetragonal cell.
 ALAT       =    11.1257740156
 C/A-ratio  =     1.5684223857
  
  Lattice vectors:
  
 A1 = (   7.8671102515,  -7.8671102533,   0.0000000000)
 A2 = (   7.8671102533,   7.8671102515,   0.0000000000)
 A3 = (   0.0000000000,   0.0000000000,  17.4499130249)
 
   2 primitive cells build up your supercell.
 

 Routine SETGRP: Setting up the symmetry group for a 
 simple tetragonal supercell.


 Subroutine GETGRP returns: Found  8 space group operations
 (whereof  8 operations were pure point group operations)
 out of a pool of 16 trial point group operations.


The static configuration has the point symmetry C_4h.


Analysis of symmetry for dynamics (positions and initial velocities):
=====================================================================
 Subroutine PRICEL returns following result:
 
  LATTYP: Found a simple tetragonal cell.
 ALAT       =    11.1257740156
 C/A-ratio  =     1.5684223857
  
  Lattice vectors:
  
 A1 = (   7.8671102515,  -7.8671102533,   0.0000000000)
 A2 = (   7.8671102533,   7.8671102515,   0.0000000000)
 A3 = (   0.0000000000,   0.0000000000,  17.4499130249)
 
   2 primitive cells build up your supercell.
 

 Routine SETGRP: Setting up the symmetry group for a 
 simple tetragonal supercell.


 Subroutine GETGRP returns: Found  8 space group operations
 (whereof  8 operations were pure point group operations)
 out of a pool of 16 trial point group operations.


The dynamic configuration has the point symmetry C_4h.


Analysis of structural, dynamic, and magnetic symmetry:
=====================================================================
 Subroutine PRICEL returns:
 Original cell was already a primitive cell.
 

 Routine SETGRP: Setting up the symmetry group for a 
 simple tetragonal supercell.


 Subroutine GETGRP returns: Found  8 space group operations
 (whereof  4 operations were pure point group operations)
 out of a pool of 16 trial point group operations.


The overall configuration has the point symmetry C_2h.
 The point group associated with its full space group is C_4h.


 Subroutine INISYM returns: Found  8 space group operations
 (whereof  4 operations are pure point group operations),
 and found     1 'primitive' translations


----------------------------------------------------------------------------------------

                                     Primitive cell                                     

  volume of cell :    4319.9998

  direct lattice vectors                    reciprocal lattice vectors
    15.734220505 -0.000000002  0.000000000     0.063555738 -0.000000000  0.000000000
     0.000000002 15.734220505  0.000000000     0.000000000  0.063555738  0.000000000
     0.000000000  0.000000000 17.449913025     0.000000000  0.000000000  0.057306876

  length of vectors
    15.734220505 15.734220505 17.449913025     0.063555738  0.063555738  0.057306876

  position of ions in fractional coordinates (direct lattice)
     0.000000000  0.000000000  0.500000000
     0.500000000  0.500000000  0.500000000
     0.212036029  0.979909156  0.500000000
     0.712036029  0.479909156  0.500000000
     0.787963971  0.020090844  0.500000000
     0.287963971  0.520090844  0.500000000
     0.520090844  0.712036029  0.500000000
     0.020090844  0.212036029  0.500000000
     0.479909156  0.287963971  0.500000000
     0.979909156  0.787963971  0.500000000
     0.370102854  0.859406017  0.500000000
     0.870102854  0.359406017  0.500000000
     0.629897146  0.140593983  0.500000000
     0.129897146  0.640593983  0.500000000
     0.640593983  0.870102854  0.500000000
     0.140593983  0.370102854  0.500000000
     0.359406017  0.129897146  0.500000000
     0.859406017  0.629897146  0.500000000
     0.188791279  0.914765219  0.500000000
     0.688791279  0.414765219  0.500000000
     0.811208721  0.085234781  0.500000000
     0.311208721  0.585234781  0.500000000
     0.585234781  0.688791279  0.500000000
     0.085234781  0.188791279  0.500000000
     0.414765219  0.311208721  0.500000000
     0.914765219  0.811208721  0.500000000
     0.232547651  0.836772266  0.500000000
     0.732547651  0.336772266  0.500000000
     0.767452349  0.163227734  0.500000000
     0.267452349  0.663227734  0.500000000
     0.663227734  0.732547651  0.500000000
     0.163227734  0.232547651  0.500000000
     0.336772266  0.267452349  0.500000000
     0.836772266  0.767452349  0.500000000
     0.665156493  0.274791099  0.500000000
     0.165156493  0.774791099  0.500000000
     0.334843507  0.725208901  0.500000000
     0.834843507  0.225208901  0.500000000
     0.225208901  0.165156493  0.500000000
     0.725208901  0.665156493  0.500000000
     0.774791099  0.834843507  0.500000000
     0.274791099  0.334843507  0.500000000
     0.318655661  0.812962650  0.500000000
     0.818655661  0.312962650  0.500000000
     0.681344339  0.187037350  0.500000000
     0.181344339  0.687037350  0.500000000
     0.687037350  0.818655661  0.500000000
     0.187037350  0.318655661  0.500000000
     0.312962650  0.181344339  0.500000000
     0.812962650  0.681344339  0.500000000
     0.102696407  0.900681191  0.500000000
     0.602696407  0.400681191  0.500000000
     0.397303593  0.599318809  0.500000000
     0.897303593  0.099318809  0.500000000
     0.099318809  0.102696407  0.500000000
     0.599318809  0.602696407  0.500000000
     0.400681191  0.397303593  0.500000000
     0.900681191  0.897303593  0.500000000
     0.588744772  0.315162572  0.500000000
     0.088744772  0.815162572  0.500000000
     0.411255228  0.684837428  0.500000000
     0.911255228  0.184837428  0.500000000
     0.184837428  0.088744772  0.500000000
     0.684837428  0.588744772  0.500000000
     0.815162572  0.911255228  0.500000000
     0.315162572  0.411255228  0.500000000

  ion indices of the primitive-cell ions
   primitive index   ion index
                 1           1
                 2           2
                 3           3
                 4           4
                 5           5
                 6           6
                 7           7
                 8           8
                 9           9
                10          10
                11          11
                12          12
                13          13
                14          14
                15          15
                16          16
                17          17
                18          18
                19          19
                20          20
                21          21
                22          22
                23          23
                24          24
                25          25
                26          26
                27          27
                28          28
                29          29
                30          30
                31          31
                32          32
                33          33
                34          34
                35          35
                36          36
                37          37
                38          38
                39          39
                40          40
                41          41
                42          42
                43          43
                44          44
                45          45
                46          46
                47          47
                48          48
                49          49
                50          50
                51          51
                52          52
                53          53
                54          54
                55          55
                56          56
                57          57
                58          58
                59          59
                60          60
                61          61
                62          62
                63          63
                64          64
                65          65
                66          66

----------------------------------------------------------------------------------------

 
 
 KPOINTS: K-Path Generated by VASPKIT.            

Interpolating k-points between supplied coordinates.

 Line segments in fractional coordinates (reciprocal lattice):
    0.500000  0.500000  0.000000  ...  0.500000  0.000000  0.000000
    0.500000  0.000000  0.000000  ...  1.000000  0.000000  0.000000
    1.000000  0.000000  0.000000  ...  0.500000  0.500000  0.000000
    0.500000  0.500000  0.000000  ...  1.000000  1.000000  0.000000
    1.000000  1.000000  0.000000  ...  1.000000  0.500000  0.000000
    1.000000  0.500000  0.000000  ...  0.500000  0.500000  0.000000

 Generated    15 points on each line segment, for a total of     90 k-points:

 Following reciprocal coordinates:
            Coordinates               Weight
  0.500000  0.500000  0.000000      0.011111
  0.500000  0.464286  0.000000      0.011111
  0.500000  0.428571  0.000000      0.011111
  0.500000  0.392857  0.000000      0.011111
  0.500000  0.357143  0.000000      0.011111
  0.500000  0.321429  0.000000      0.011111
  0.500000  0.285714  0.000000      0.011111
  0.500000  0.250000  0.000000      0.011111
  0.500000  0.214286  0.000000      0.011111
  0.500000  0.178571  0.000000      0.011111
  0.500000  0.142857  0.000000      0.011111
  0.500000  0.107143  0.000000      0.011111
  0.500000  0.071429  0.000000      0.011111
  0.500000  0.035714  0.000000      0.011111
  0.500000  0.000000  0.000000      0.011111
  0.500000  0.000000  0.000000      0.011111
  0.535714  0.000000  0.000000      0.011111
  0.571429  0.000000  0.000000      0.011111
  0.607143  0.000000  0.000000      0.011111
  0.642857  0.000000  0.000000      0.011111
  0.678571  0.000000  0.000000      0.011111
  0.714286  0.000000  0.000000      0.011111
  0.750000  0.000000  0.000000      0.011111
  0.785714  0.000000  0.000000      0.011111
  0.821429  0.000000  0.000000      0.011111
  0.857143  0.000000  0.000000      0.011111
  0.892857  0.000000  0.000000      0.011111
  0.928571  0.000000  0.000000      0.011111
  0.964286  0.000000  0.000000      0.011111
  1.000000  0.000000  0.000000      0.011111
  1.000000  0.000000  0.000000      0.011111
  0.964286  0.035714  0.000000      0.011111
  0.928571  0.071429  0.000000      0.011111
  0.892857  0.107143  0.000000      0.011111
  0.857143  0.142857  0.000000      0.011111
  0.821429  0.178571  0.000000      0.011111
  0.785714  0.214286  0.000000      0.011111
  0.750000  0.250000  0.000000      0.011111
  0.714286  0.285714  0.000000      0.011111
  0.678571  0.321429  0.000000      0.011111
  0.642857  0.357143  0.000000      0.011111
  0.607143  0.392857  0.000000      0.011111
  0.571429  0.428571  0.000000      0.011111
  0.535714  0.464286  0.000000      0.011111
  0.500000  0.500000  0.000000      0.011111
  0.500000  0.500000  0.000000      0.011111
  0.535714  0.535714  0.000000      0.011111
  0.571429  0.571429  0.000000      0.011111
  0.607143  0.607143  0.000000      0.011111
  0.642857  0.642857  0.000000      0.011111
  0.678571  0.678571  0.000000      0.011111
  0.714286  0.714286  0.000000      0.011111
  0.750000  0.750000  0.000000      0.011111
  0.785714  0.785714  0.000000      0.011111
  0.821429  0.821429  0.000000      0.011111
  0.857143  0.857143  0.000000      0.011111
  0.892857  0.892857  0.000000      0.011111
  0.928571  0.928571  0.000000      0.011111
  0.964286  0.964286  0.000000      0.011111
  1.000000  1.000000  0.000000      0.011111
  1.000000  1.000000  0.000000      0.011111
  1.000000  0.964286  0.000000      0.011111
  1.000000  0.928571  0.000000      0.011111
  1.000000  0.892857  0.000000      0.011111
  1.000000  0.857143  0.000000      0.011111
  1.000000  0.821429  0.000000      0.011111
  1.000000  0.785714  0.000000      0.011111
  1.000000  0.750000  0.000000      0.011111
  1.000000  0.714286  0.000000      0.011111
  1.000000  0.678571  0.000000      0.011111
  1.000000  0.642857  0.000000      0.011111
  1.000000  0.607143  0.000000      0.011111
  1.000000  0.571429  0.000000      0.011111
  1.000000  0.535714  0.000000      0.011111
  1.000000  0.500000  0.000000      0.011111
  1.000000  0.500000  0.000000      0.011111
  0.964286  0.500000  0.000000      0.011111
  0.928571  0.500000  0.000000      0.011111
  0.892857  0.500000  0.000000      0.011111
  0.857143  0.500000  0.000000      0.011111
  0.821429  0.500000  0.000000      0.011111
  0.785714  0.500000  0.000000      0.011111
  0.750000  0.500000  0.000000      0.011111
  0.714286  0.500000  0.000000      0.011111
  0.678571  0.500000  0.000000      0.011111
  0.642857  0.500000  0.000000      0.011111
  0.607143  0.500000  0.000000      0.011111
  0.571429  0.500000  0.000000      0.011111
  0.535714  0.500000  0.000000      0.011111
  0.500000  0.500000  0.000000      0.011111

 Following cartesian coordinates:
            Coordinates               Weight
  0.031778  0.031778  0.000000      0.011111
  0.031778  0.029508  0.000000      0.011111
  0.031778  0.027238  0.000000      0.011111
  0.031778  0.024968  0.000000      0.011111
  0.031778  0.022698  0.000000      0.011111
  0.031778  0.020429  0.000000      0.011111
  0.031778  0.018159  0.000000      0.011111
  0.031778  0.015889  0.000000      0.011111
  0.031778  0.013619  0.000000      0.011111
  0.031778  0.011349  0.000000      0.011111
  0.031778  0.009079  0.000000      0.011111
  0.031778  0.006810  0.000000      0.011111
  0.031778  0.004540  0.000000      0.011111
  0.031778  0.002270  0.000000      0.011111
  0.031778 -0.000000  0.000000      0.011111
  0.031778 -0.000000  0.000000      0.011111
  0.034048 -0.000000  0.000000      0.011111
  0.036318 -0.000000  0.000000      0.011111
  0.038587 -0.000000  0.000000      0.011111
  0.040857 -0.000000  0.000000      0.011111
  0.043127 -0.000000  0.000000      0.011111
  0.045397 -0.000000  0.000000      0.011111
  0.047667 -0.000000  0.000000      0.011111
  0.049937 -0.000000  0.000000      0.011111
  0.052206 -0.000000  0.000000      0.011111
  0.054476 -0.000000  0.000000      0.011111
  0.056746 -0.000000  0.000000      0.011111
  0.059016 -0.000000  0.000000      0.011111
  0.061286 -0.000000  0.000000      0.011111
  0.063556 -0.000000  0.000000      0.011111
  0.063556 -0.000000  0.000000      0.011111
  0.061286  0.002270  0.000000      0.011111
  0.059016  0.004540  0.000000      0.011111
  0.056746  0.006810  0.000000      0.011111
  0.054476  0.009079  0.000000      0.011111
  0.052206  0.011349  0.000000      0.011111
  0.049937  0.013619  0.000000      0.011111
  0.047667  0.015889  0.000000      0.011111
  0.045397  0.018159  0.000000      0.011111
  0.043127  0.020429  0.000000      0.011111
  0.040857  0.022698  0.000000      0.011111
  0.038587  0.024968  0.000000      0.011111
  0.036318  0.027238  0.000000      0.011111
  0.034048  0.029508  0.000000      0.011111
  0.031778  0.031778  0.000000      0.011111
  0.031778  0.031778  0.000000      0.011111
  0.034048  0.034048  0.000000      0.011111
  0.036318  0.036318  0.000000      0.011111
  0.038587  0.038587  0.000000      0.011111
  0.040857  0.040857  0.000000      0.011111
  0.043127  0.043127  0.000000      0.011111
  0.045397  0.045397  0.000000      0.011111
  0.047667  0.047667  0.000000      0.011111
  0.049937  0.049937  0.000000      0.011111
  0.052206  0.052206  0.000000      0.011111
  0.054476  0.054476  0.000000      0.011111
  0.056746  0.056746  0.000000      0.011111
  0.059016  0.059016  0.000000      0.011111
  0.061286  0.061286  0.000000      0.011111
  0.063556  0.063556  0.000000      0.011111
  0.063556  0.063556  0.000000      0.011111
  0.063556  0.061286  0.000000      0.011111
  0.063556  0.059016  0.000000      0.011111
  0.063556  0.056746  0.000000      0.011111
  0.063556  0.054476  0.000000      0.011111
  0.063556  0.052206  0.000000      0.011111
  0.063556  0.049937  0.000000      0.011111
  0.063556  0.047667  0.000000      0.011111
  0.063556  0.045397  0.000000      0.011111
  0.063556  0.043127  0.000000      0.011111
  0.063556  0.040857  0.000000      0.011111
  0.063556  0.038587  0.000000      0.011111
  0.063556  0.036318  0.000000      0.011111
  0.063556  0.034048  0.000000      0.011111
  0.063556  0.031778  0.000000      0.011111
  0.063556  0.031778  0.000000      0.011111
  0.061286  0.031778  0.000000      0.011111
  0.059016  0.031778  0.000000      0.011111
  0.056746  0.031778  0.000000      0.011111
  0.054476  0.031778  0.000000      0.011111
  0.052206  0.031778  0.000000      0.011111
  0.049937  0.031778  0.000000      0.011111
  0.047667  0.031778  0.000000      0.011111
  0.045397  0.031778  0.000000      0.011111
  0.043127  0.031778  0.000000      0.011111
  0.040857  0.031778  0.000000      0.011111
  0.038587  0.031778  0.000000      0.011111
  0.036318  0.031778  0.000000      0.011111
  0.034048  0.031778  0.000000      0.011111
  0.031778  0.031778  0.000000      0.011111
 


--------------------------------------------------------------------------------------------------------




 Dimension of arrays:
   k-points           NKPTS =     90   k-points in BZ     NKDIM =     90   number of bands    NBANDS=    160
   number of dos      NEDOS =    301   number of ions     NIONS =     66
   non local maximal  LDIM  =      6   non local SUM 2l+1 LMDIM =     18
   total plane-waves  NPLWV = 777600
   max r-space proj   IRMAX =   1744   max aug-charges    IRDMAX=   6462
   dimension x,y,z NGX =    90 NGY =   90 NGZ =   96
   dimension x,y,z NGXF=   180 NGYF=  180 NGZF=  192
   support grid    NGXF=   180 NGYF=  180 NGZF=  192
   ions per type =               2  16  32  16
   NGX,Y,Z   is equivalent  to a cutoff of   9.51,  9.51,  9.15 a.u.
   NGXF,Y,Z  is equivalent  to a cutoff of  19.02, 19.02, 18.29 a.u.

 SYSTEM =  unknown system                          
 POSCAR =  Cartesian coordinates                   

 Startparameter for this run:
   NWRITE =      2    write-flag & timer
   PREC   = normal    normal or accurate (medium, high low for compatibility)
   ISTART =      0    job   : 0-new  1-cont  2-samecut
   ICHARG =     11    charge: 1-file 2-atom 10-const
   ISPIN  =      2    spin polarized calculation?
   LNONCOLLINEAR =      F non collinear calculations
   LSORBIT =      F    spin-orbit coupling
   INIWAV =      1    electr: 0-lowe 1-rand  2-diag
   LASPH  =      F    aspherical Exc in radial PAW
 Electronic Relaxation 1
   ENCUT  =  500.0 eV  36.75 Ry    6.06 a.u.  28.69 28.69 31.82*2*pi/ulx,y,z
   ENINI  =  500.0     initial cutoff
   ENAUG  =  644.9 eV  augmentation charge cutoff
   NELM   =    200;   NELMIN=  2; NELMDL=  0     # of ELM steps 
   EDIFF  = 0.1E-04   stopping-criterion for ELM
   LREAL  =      T    real-space projection
   NLSPLINE    = F    spline interpolate recip. space projectors
   LCOMPAT=      F    compatible to vasp.4.4
   GGA_COMPAT  = T    GGA compatible to vasp.4.4-vasp.4.6
   LMAXPAW     = -100 max onsite density
   LMAXMIX     =    4 max onsite mixed and CHGCAR
   VOSKOWN=      0    Vosko Wilk Nusair interpolation
   ROPT   =   -0.00050  -0.00050  -0.00050  -0.00050
 Ionic relaxation
   EDIFFG = -.1E-01   stopping-criterion for IOM
   NSW    =      0    number of steps for IOM
   NBLOCK =      1;   KBLOCK =      1    inner block; outer block 
   IBRION =     -1    ionic relax: 0-MD 1-quasi-New 2-CG
   NFREE  =      0    steps in history (QN), initial steepest desc. (CG)
   ISIF   =      2    stress and relaxation
   IWAVPR =     10    prediction:  0-non 1-charg 2-wave 3-comb
   ISYM   =      2    0-nonsym 1-usesym 2-fastsym
   LCORR  =      T    Harris-Foulkes like correction to forces

   POTIM  = 0.5000    time-step for ionic-motion
   TEIN   =    0.0    initial temperature
   TEBEG  =    0.0;   TEEND  =   0.0 temperature during run
   SMASS  =  -3.00    Nose mass-parameter (am)
   estimated Nose-frequenzy (Omega)   =  0.10E-29 period in steps = 0.13E+47 mass=  -0.566E-26a.u.
   SCALEE = 1.0000    scale energy and forces
   NPACO  =    256;   APACO  = 10.0  distance and # of slots for P.C.
   PSTRESS=    0.0 pullay stress

  Mass of Ions in am
   POMASS =  52.00  1.00 12.01 14.00
  Ionic Valenz
   ZVAL   =  12.00  1.00  4.00  5.00
  Atomic Wigner-Seitz radii
   RWIGS  =  -1.00 -1.00 -1.00 -1.00
  virtual crystal weights 
   VCA    =   1.00  1.00  1.00  1.00
   NELECT =     248.0000    total number of electrons
   NUPDOWN=      -1.0000    fix difference up-down

 DOS related values:
   EMIN   =  10.00;   EMAX   =-10.00  energy-range for DOS
   EFERMI =   0.00
   ISMEAR =     1;   SIGMA  =   0.20  broadening in eV -4-tet -1-fermi 0-gaus

 Electronic relaxation 2 (details)
   IALGO  =     68    algorithm
   LDIAG  =      T    sub-space diagonalisation (order eigenvalues)
   LSUBROT=      F    optimize rotation matrix (better conditioning)
   TURBO    =      0    0=normal 1=particle mesh
   IRESTART =      0    0=no restart 2=restart with 2 vectors
   NREBOOT  =      0    no. of reboots
   NMIN     =      0    reboot dimension
   EREF     =   0.00    reference energy to select bands
   IMIX   =      4    mixing-type and parameters
     AMIX     =   0.20;   BMIX     =  0.00
     AMIX_MAG =   0.80;   BMIX_MAG =  0.00
     AMIN     =   0.10
     WC   =   100.;   INIMIX=   1;  MIXPRE=   1;  MAXMIX= -45

 Intra band minimization:
   WEIMIN = 0.0000     energy-eigenvalue tresh-hold
   EBREAK =  0.16E-07  absolut break condition
   DEPER  =   0.30     relativ break condition  

   TIME   =   0.40     timestep for ELM

  volume/ion in A,a.u.               =      65.45       441.71
  Fermi-wavevector in a.u.,A,eV,Ry     =   0.631535  1.193428  5.426501  0.398837
  Thomas-Fermi vector in A             =   1.694543
 
 Write flags
   LWAVE        =      F    write WAVECAR
   LDOWNSAMPLE  =      F    k-point downsampling of WAVECAR
   LCHARG       =      F    write CHGCAR
   LVTOT        =      T    write LOCPOT, total local potential
   LVHAR        =      F    write LOCPOT, Hartree potential only
   LELF         =      F    write electronic localiz. function (ELF)
   LORBIT       =     11    0 simple, 1 ext, 2 COOP (PROOUT), +10 PAW based schemes


 Dipole corrections
   LMONO  =      F    monopole corrections only (constant potential shift)
   LDIPOL =      F    correct potential (dipole corrections)
   IDIPOL =      0    1-x, 2-y, 3-z, 4-all directions 
   EPSILON=  1.0000000 bulk dielectric constant

 LDA+U is selected, type is set to LDAUTYPE =  2
   angular momentum for each species LDAUL =     2   -1   -1   -1
   U (eV)           for each species LDAUU =   3.0  0.0  0.0  0.0
   J (eV)           for each species LDAUJ =   1.0  0.0  0.0  0.0
 Exchange correlation treatment:
   GGA     =    --    GGA type
   LEXCH   =     8    internal setting for exchange type
   LIBXC   =     F    Libxc                    
   VOSKOWN =     0    Vosko Wilk Nusair interpolation
   LHFCALC =     F    Hartree Fock is set to
   LHFONE  =     F    Hartree Fock one center treatment
   AEXX    =    0.0000 exact exchange contribution

 Linear response parameters
   LEPSILON=     F    determine dielectric tensor
   LRPA    =     F    only Hartree local field effects (RPA)
   LNABLA  =     F    use nabla operator in PAW spheres
   LVEL    =     F    velocity operator in full k-point grid
   CSHIFT  =0.1000    complex shift for real part using Kramers Kronig
   OMEGAMAX=  -1.0    maximum frequency
   DEG_THRESHOLD= 0.2000000E-02 threshold for treating states as degnerate
   RTIME   =   -0.100 relaxation time in fs
  (WPLASMAI=    0.000 imaginary part of plasma frequency in eV, 0.658/RTIME)
   DFIELD  = 0.0000000 0.0000000 0.0000000 field for delta impulse in time
 
  Optional k-point grid parameters
   LKPOINTS_OPT  =     F    use optional k-point grid
   KPOINTS_OPT_MODE=     1    mode for optional k-point grid
 
 Orbital magnetization related:
   ORBITALMAG=     F  switch on orbital magnetization
   LCHIMAG   =     F  perturbation theory with respect to B field
   DQ        =  0.001000  dq finite difference perturbation B field
   LLRAUG    =     F  two centre corrections for induced B field



--------------------------------------------------------------------------------------------------------


 Static calculation
 charge density and potential remain constant during run
 spin polarized calculation
 RMM-DIIS sequential band-by-band and
  variant of blocked Davidson during initial phase
 perform sub-space diagonalisation
    before iterative eigenvector-optimisation
 no mixing
 using additional bands           36
 real space projection scheme for non local part
 use partial core corrections
 calculate Harris-corrections to forces 
   (improved forces if not selfconsistent)
 use gradient corrections 
 WARNING: stress and forces are not correct
  (second derivative of E(xc) not defined)
 use of overlap-Matrix (Vanderbilt PP)
 Methfessel and Paxton  Order N= 1 SIGMA  =   0.20


--------------------------------------------------------------------------------------------------------


  energy-cutoff  :      500.00
  volume of cell :     4320.00
      direct lattice vectors                 reciprocal lattice vectors
    15.734220505 -0.000000002  0.000000000     0.063555738 -0.000000000  0.000000000
     0.000000002 15.734220505  0.000000000     0.000000000  0.063555738  0.000000000
     0.000000000  0.000000000 17.449913025     0.000000000  0.000000000  0.057306876

  length of vectors
    15.734220505 15.734220505 17.449913025     0.063555738  0.063555738  0.057306876


 
 k-points in units of 2pi/SCALE and weight: K-Path Generated by VASPKIT.            
   0.03177787  0.03177787  0.00000000       0.011
   0.03177787  0.02950802  0.00000000       0.011
   0.03177787  0.02723817  0.00000000       0.011
   0.03177787  0.02496833  0.00000000       0.011
   0.03177787  0.02269848  0.00000000       0.011
   0.03177787  0.02042863  0.00000000       0.011
   0.03177787  0.01815878  0.00000000       0.011
   0.03177787  0.01588893  0.00000000       0.011
   0.03177787  0.01361909  0.00000000       0.011
   0.03177787  0.01134924  0.00000000       0.011
   0.03177787  0.00907939  0.00000000       0.011
   0.03177787  0.00680954  0.00000000       0.011
   0.03177787  0.00453970  0.00000000       0.011
   0.03177787  0.00226985  0.00000000       0.011
   0.03177787 -0.00000000  0.00000000       0.011
   0.03177787 -0.00000000  0.00000000       0.011
   0.03404772 -0.00000000  0.00000000       0.011
   0.03631756 -0.00000000  0.00000000       0.011
   0.03858741 -0.00000000  0.00000000       0.011
   0.04085726 -0.00000000  0.00000000       0.011
   0.04312711 -0.00000000  0.00000000       0.011
   0.04539696 -0.00000000  0.00000000       0.011
   0.04766680 -0.00000000  0.00000000       0.011
   0.04993665 -0.00000000  0.00000000       0.011
   0.05220650 -0.00000000  0.00000000       0.011
   0.05447635 -0.00000000  0.00000000       0.011
   0.05674619 -0.00000000  0.00000000       0.011
   0.05901604 -0.00000000  0.00000000       0.011
   0.06128589 -0.00000000  0.00000000       0.011
   0.06355574 -0.00000000  0.00000000       0.011
   0.06355574 -0.00000000  0.00000000       0.011
   0.06128589  0.00226985  0.00000000       0.011
   0.05901604  0.00453970  0.00000000       0.011
   0.05674619  0.00680954  0.00000000       0.011
   0.05447635  0.00907939  0.00000000       0.011
   0.05220650  0.01134924  0.00000000       0.011
   0.04993665  0.01361909  0.00000000       0.011
   0.04766680  0.01588893  0.00000000       0.011
   0.04539696  0.01815878  0.00000000       0.011
   0.04312711  0.02042863  0.00000000       0.011
   0.04085726  0.02269848  0.00000000       0.011
   0.03858741  0.02496833  0.00000000       0.011
   0.03631756  0.02723817  0.00000000       0.011
   0.03404772  0.02950802  0.00000000       0.011
   0.03177787  0.03177787  0.00000000       0.011
   0.03177787  0.03177787  0.00000000       0.011
   0.03404772  0.03404772  0.00000000       0.011
   0.03631756  0.03631756  0.00000000       0.011
   0.03858741  0.03858741  0.00000000       0.011
   0.04085726  0.04085726  0.00000000       0.011
   0.04312711  0.04312711  0.00000000       0.011
   0.04539696  0.04539696  0.00000000       0.011
   0.04766680  0.04766680  0.00000000       0.011
   0.04993665  0.04993665  0.00000000       0.011
   0.05220650  0.05220650  0.00000000       0.011
   0.05447635  0.05447635  0.00000000       0.011
   0.05674619  0.05674619  0.00000000       0.011
   0.05901604  0.05901604  0.00000000       0.011
   0.06128589  0.06128589  0.00000000       0.011
   0.06355574  0.06355574  0.00000000       0.011
   0.06355574  0.06355574  0.00000000       0.011
   0.06355574  0.06128589  0.00000000       0.011
   0.06355574  0.05901604  0.00000000       0.011
   0.06355574  0.05674619  0.00000000       0.011
   0.06355574  0.05447635  0.00000000       0.011
   0.06355574  0.05220650  0.00000000       0.011
   0.06355574  0.04993665  0.00000000       0.011
   0.06355574  0.04766680  0.00000000       0.011
   0.06355574  0.04539696  0.00000000       0.011
   0.06355574  0.04312711  0.00000000       0.011
   0.06355574  0.04085726  0.00000000       0.011
   0.06355574  0.03858741  0.00000000       0.011
   0.06355574  0.03631756  0.00000000       0.011
   0.06355574  0.03404772  0.00000000       0.011
   0.06355574  0.03177787  0.00000000       0.011
   0.06355574  0.03177787  0.00000000       0.011
   0.06128589  0.03177787  0.00000000       0.011
   0.05901604  0.03177787  0.00000000       0.011
   0.05674619  0.03177787  0.00000000       0.011
   0.05447635  0.03177787  0.00000000       0.011
   0.05220650  0.03177787  0.00000000       0.011
   0.04993665  0.03177787  0.00000000       0.011
   0.04766680  0.03177787  0.00000000       0.011
   0.04539696  0.03177787  0.00000000       0.011
   0.04312711  0.03177787  0.00000000       0.011
   0.04085726  0.03177787  0.00000000       0.011
   0.03858741  0.03177787  0.00000000       0.011
   0.03631756  0.03177787  0.00000000       0.011
   0.03404772  0.03177787  0.00000000       0.011
   0.03177787  0.03177787  0.00000000       0.011
 
 k-points in reciprocal lattice and weights: K-Path Generated by VASPKIT.            
   0.50000000  0.50000000  0.00000000       0.011
   0.50000000  0.46428571  0.00000000       0.011
   0.50000000  0.42857143  0.00000000       0.011
   0.50000000  0.39285714  0.00000000       0.011
   0.50000000  0.35714286  0.00000000       0.011
   0.50000000  0.32142857  0.00000000       0.011
   0.50000000  0.28571429  0.00000000       0.011
   0.50000000  0.25000000  0.00000000       0.011
   0.50000000  0.21428571  0.00000000       0.011
   0.50000000  0.17857143  0.00000000       0.011
   0.50000000  0.14285714  0.00000000       0.011
   0.50000000  0.10714286  0.00000000       0.011
   0.50000000  0.07142857  0.00000000       0.011
   0.50000000  0.03571429  0.00000000       0.011
   0.50000000  0.00000000  0.00000000       0.011
   0.50000000  0.00000000  0.00000000       0.011
   0.53571429  0.00000000  0.00000000       0.011
   0.57142857  0.00000000  0.00000000       0.011
   0.60714286  0.00000000  0.00000000       0.011
   0.64285714  0.00000000  0.00000000       0.011
   0.67857143  0.00000000  0.00000000       0.011
   0.71428571  0.00000000  0.00000000       0.011
   0.75000000  0.00000000  0.00000000       0.011
   0.78571429  0.00000000  0.00000000       0.011
   0.82142857  0.00000000  0.00000000       0.011
   0.85714286  0.00000000  0.00000000       0.011
   0.89285714  0.00000000  0.00000000       0.011
   0.92857143  0.00000000  0.00000000       0.011
   0.96428571  0.00000000  0.00000000       0.011
   1.00000000  0.00000000  0.00000000       0.011
   1.00000000  0.00000000  0.00000000       0.011
   0.96428571  0.03571429  0.00000000       0.011
   0.92857143  0.07142857  0.00000000       0.011
   0.89285714  0.10714286  0.00000000       0.011
   0.85714286  0.14285714  0.00000000       0.011
   0.82142857  0.17857143  0.00000000       0.011
   0.78571429  0.21428571  0.00000000       0.011
   0.75000000  0.25000000  0.00000000       0.011
   0.71428571  0.28571429  0.00000000       0.011
   0.67857143  0.32142857  0.00000000       0.011
   0.64285714  0.35714286  0.00000000       0.011
   0.60714286  0.39285714  0.00000000       0.011
   0.57142857  0.42857143  0.00000000       0.011
   0.53571429  0.46428571  0.00000000       0.011
   0.50000000  0.50000000  0.00000000       0.011
   0.50000000  0.50000000  0.00000000       0.011
   0.53571429  0.53571429  0.00000000       0.011
   0.57142857  0.57142857  0.00000000       0.011
   0.60714286  0.60714286  0.00000000       0.011
   0.64285714  0.64285714  0.00000000       0.011
   0.67857143  0.67857143  0.00000000       0.011
   0.71428571  0.71428571  0.00000000       0.011
   0.75000000  0.75000000  0.00000000       0.011
   0.78571429  0.78571429  0.00000000       0.011
   0.82142857  0.82142857  0.00000000       0.011
   0.85714286  0.85714286  0.00000000       0.011
   0.89285714  0.89285714  0.00000000       0.011
   0.92857143  0.92857143  0.00000000       0.011
   0.96428571  0.96428571  0.00000000       0.011
   1.00000000  1.00000000  0.00000000       0.011
   1.00000000  1.00000000  0.00000000       0.011
   1.00000000  0.96428571  0.00000000       0.011
   1.00000000  0.92857143  0.00000000       0.011
   1.00000000  0.89285714  0.00000000       0.011
   1.00000000  0.85714286  0.00000000       0.011
   1.00000000  0.82142857  0.00000000       0.011
   1.00000000  0.78571429  0.00000000       0.011
   1.00000000  0.75000000  0.00000000       0.011
   1.00000000  0.71428571  0.00000000       0.011
   1.00000000  0.67857143  0.00000000       0.011
   1.00000000  0.64285714  0.00000000       0.011
   1.00000000  0.60714286  0.00000000       0.011
   1.00000000  0.57142857  0.00000000       0.011
   1.00000000  0.53571429  0.00000000       0.011
   1.00000000  0.50000000  0.00000000       0.011
   1.00000000  0.50000000  0.00000000       0.011
   0.96428571  0.50000000  0.00000000       0.011
   0.92857143  0.50000000  0.00000000       0.011
   0.89285714  0.50000000  0.00000000       0.011
   0.85714286  0.50000000  0.00000000       0.011
   0.82142857  0.50000000  0.00000000       0.011
   0.78571429  0.50000000  0.00000000       0.011
   0.75000000  0.50000000  0.00000000       0.011
   0.71428571  0.50000000  0.00000000       0.011
   0.67857143  0.50000000  0.00000000       0.011
   0.64285714  0.50000000  0.00000000       0.011
   0.60714286  0.50000000  0.00000000       0.011
   0.57142857  0.50000000  0.00000000       0.011
   0.53571429  0.50000000  0.00000000       0.011
   0.50000000  0.50000000  0.00000000       0.011
 
 position of ions in fractional coordinates (direct lattice) 
   0.00000000  0.00000000  0.50000000
   0.50000000  0.50000000  0.50000000
   0.21203603  0.97990916  0.50000000
   0.71203603  0.47990916  0.50000000
   0.78796397  0.02009084  0.50000000
   0.28796397  0.52009084  0.50000000
   0.52009084  0.71203603  0.50000000
   0.02009084  0.21203603  0.50000000
   0.47990916  0.28796397  0.50000000
   0.97990916  0.78796397  0.50000000
   0.37010285  0.85940602  0.50000000
   0.87010285  0.35940602  0.50000000
   0.62989715  0.14059398  0.50000000
   0.12989715  0.64059398  0.50000000
   0.64059398  0.87010285  0.50000000
   0.14059398  0.37010285  0.50000000
   0.35940602  0.12989715  0.50000000
   0.85940602  0.62989715  0.50000000
   0.18879128  0.91476522  0.50000000
   0.68879128  0.41476522  0.50000000
   0.81120872  0.08523478  0.50000000
   0.31120872  0.58523478  0.50000000
   0.58523478  0.68879128  0.50000000
   0.08523478  0.18879128  0.50000000
   0.41476522  0.31120872  0.50000000
   0.91476522  0.81120872  0.50000000
   0.23254765  0.83677227  0.50000000
   0.73254765  0.33677227  0.50000000
   0.76745235  0.16322773  0.50000000
   0.26745235  0.66322773  0.50000000
   0.66322773  0.73254765  0.50000000
   0.16322773  0.23254765  0.50000000
   0.33677227  0.26745235  0.50000000
   0.83677227  0.76745235  0.50000000
   0.66515649  0.27479110  0.50000000
   0.16515649  0.77479110  0.50000000
   0.33484351  0.72520890  0.50000000
   0.83484351  0.22520890  0.50000000
   0.22520890  0.16515649  0.50000000
   0.72520890  0.66515649  0.50000000
   0.77479110  0.83484351  0.50000000
   0.27479110  0.33484351  0.50000000
   0.31865566  0.81296265  0.50000000
   0.81865566  0.31296265  0.50000000
   0.68134434  0.18703735  0.50000000
   0.18134434  0.68703735  0.50000000
   0.68703735  0.81865566  0.50000000
   0.18703735  0.31865566  0.50000000
   0.31296265  0.18134434  0.50000000
   0.81296265  0.68134434  0.50000000
   0.10269641  0.90068119  0.50000000
   0.60269641  0.40068119  0.50000000
   0.39730359  0.59931881  0.50000000
   0.89730359  0.09931881  0.50000000
   0.09931881  0.10269641  0.50000000
   0.59931881  0.60269641  0.50000000
   0.40068119  0.39730359  0.50000000
   0.90068119  0.89730359  0.50000000
   0.58874477  0.31516257  0.50000000
   0.08874477  0.81516257  0.50000000
   0.41125523  0.68483743  0.50000000
   0.91125523  0.18483743  0.50000000
   0.18483743  0.08874477  0.50000000
   0.68483743  0.58874477  0.50000000
   0.81516257  0.91125523  0.50000000
   0.31516257  0.41125523  0.50000000
 
 position of ions in cartesian coordinates  (Angst):
   0.00000000  0.00000000  8.72495651
   7.86711025  7.86711025  8.72495651
   3.33622164 15.41810673  8.72495651
  11.20333189  7.55099648  8.72495651
  12.39799887  0.31611377  8.72495651
   4.53088862  8.18322402  8.72495651
   8.18322402 11.20333189  8.72495651
   0.31611377  3.33622164  8.72495651
   7.55099648  4.53088862  8.72495651
  15.41810674 12.39799887  8.72495651
   5.82327992 13.52208377  8.72495651
  13.69039017  5.65497352  8.72495651
   9.91094059  2.21213673  8.72495651
   2.04383034 10.07924698  8.72495651
  10.07924698 13.69039017  8.72495651
   2.21213673  5.82327991  8.72495651
   5.65497352  2.04383034  8.72495651
  13.52208378  9.91094059  8.72495651
   2.97048361 14.39311767  8.72495651
  10.83759387  6.52600741  8.72495651
  12.76373689  1.34110284  8.72495651
   4.89662664  9.20821309  8.72495651
   9.20821309 10.83759386  8.72495651
   1.34110284  2.97048361  8.72495651
   6.52600741  4.89662664  8.72495651
  14.39311767 12.76373689  8.72495651
   3.65895602 13.16595935  8.72495651
  11.52606627  5.29884909  8.72495651
  12.07526449  2.56826116  8.72495651
   4.20815423 10.43537141  8.72495651
  10.43537141 11.52606627  8.72495651
   2.56826116  3.65895602  8.72495651
   5.29884909  4.20815423  8.72495651
  13.16595935 12.07526448  8.72495651
  10.46571893  4.32362374  8.72495651
   2.59860868 12.19073400  8.72495651
   5.26850158 11.41059676  8.72495651
  13.13561183  3.54348651  8.72495651
   3.54348651  2.59860868  8.72495651
  11.41059676 10.46571893  8.72495651
  12.19073400 13.13561182  8.72495651
   4.32362375  5.26850157  8.72495651
   5.01379844 12.79133360  8.72495651
  12.88090869  4.92422334  8.72495651
  10.72042207  2.94288691  8.72495651
   2.85331182 10.80999716  8.72495651
  10.80999716 12.88090869  8.72495651
   2.94288691  5.01379843  8.72495651
   4.92422335  2.85331182  8.72495651
  12.79133360 10.72042207  8.72495651
   1.61584791 14.17151646  8.72495651
   9.48295817  6.30440621  8.72495651
   6.25126234  9.42981429  8.72495651
  14.11837259  1.56270404  8.72495651
   1.56270404  1.61584791  8.72495651
   9.42981429  9.48295816  8.72495651
   6.30440621  6.25126234  8.72495651
  14.17151647 14.11837259  8.72495651
   9.26344006  4.95883740  8.72495651
   1.39632981 12.82594765  8.72495651
   6.47078044 10.77538310  8.72495651
  14.33789069  2.90827285  8.72495651
   2.90827285  1.39632981  8.72495651
  10.77538310  9.26344006  8.72495651
  12.82594766 14.33789069  8.72495651
   4.95883740  6.47078044  8.72495651
 


--------------------------------------------------------------------------------------------------------


 k-point   1 :   0.5000 0.5000 0.0000  plane waves:  109784
 k-point   2 :   0.5000 0.4643 0.0000  plane waves:  109708
 k-point   3 :   0.5000 0.4286 0.0000  plane waves:  109682
 k-point   4 :   0.5000 0.3929 0.0000  plane waves:  109730
 k-point   5 :   0.5000 0.3571 0.0000  plane waves:  109714
 k-point   6 :   0.5000 0.3214 0.0000  plane waves:  109722
 k-point   7 :   0.5000 0.2857 0.0000  plane waves:  109742
 k-point   8 :   0.5000 0.2500 0.0000  plane waves:  109728
 k-point   9 :   0.5000 0.2143 0.0000  plane waves:  109710
 k-point  10 :   0.5000 0.1786 0.0000  plane waves:  109674
 k-point  11 :   0.5000 0.1429 0.0000  plane waves:  109678
 k-point  12 :   0.5000 0.1071 0.0000  plane waves:  109678
 k-point  13 :   0.5000 0.0714 0.0000  plane waves:  109618
 k-point  14 :   0.5000 0.0357 0.0000  plane waves:  109590
 k-point  15 :   0.5000 0.0000 0.0000  plane waves:  109558
 k-point  16 :   0.5000 0.0000 0.0000  plane waves:  109558
 k-point  17 :   0.5357 0.0000 0.0000  plane waves:  109624
 k-point  18 :   0.5714 0.0000 0.0000  plane waves:  109636
 k-point  19 :   0.6071 0.0000 0.0000  plane waves:  109626
 k-point  20 :   0.6429 0.0000 0.0000  plane waves:  109612
 k-point  21 :   0.6786 0.0000 0.0000  plane waves:  109626
 k-point  22 :   0.7143 0.0000 0.0000  plane waves:  109631
 k-point  23 :   0.7500 0.0000 0.0000  plane waves:  109649
 k-point  24 :   0.7857 0.0000 0.0000  plane waves:  109695
 k-point  25 :   0.8214 0.0000 0.0000  plane waves:  109703
 k-point  26 :   0.8571 0.0000 0.0000  plane waves:  109715
 k-point  27 :   0.8929 0.0000 0.0000  plane waves:  109733
 k-point  28 :   0.9286 0.0000 0.0000  plane waves:  109743
 k-point  29 :   0.9643 0.0000 0.0000  plane waves:  109783
 k-point  30 :   1.0000 0.0000 0.0000  plane waves:  109783
 k-point  31 :   1.0000 0.0000 0.0000  plane waves:  109783
 k-point  32 :   0.9643 0.0357 0.0000  plane waves:  109767
 k-point  33 :   0.9286 0.0714 0.0000  plane waves:  109763
 k-point  34 :   0.8929 0.1071 0.0000  plane waves:  109719
 k-point  35 :   0.8571 0.1429 0.0000  plane waves:  109701
 k-point  36 :   0.8214 0.1786 0.0000  plane waves:  109649
 k-point  37 :   0.7857 0.2143 0.0000  plane waves:  109659
 k-point  38 :   0.7500 0.2500 0.0000  plane waves:  109637
 k-point  39 :   0.7143 0.2857 0.0000  plane waves:  109630
 k-point  40 :   0.6786 0.3214 0.0000  plane waves:  109680
 k-point  41 :   0.6429 0.3571 0.0000  plane waves:  109696
 k-point  42 :   0.6071 0.3929 0.0000  plane waves:  109710
 k-point  43 :   0.5714 0.4286 0.0000  plane waves:  109704
 k-point  44 :   0.5357 0.4643 0.0000  plane waves:  109682
 k-point  45 :   0.5000 0.5000 0.0000  plane waves:  109784
 k-point  46 :   0.5000 0.5000 0.0000  plane waves:  109784
 k-point  47 :   0.5357 0.5357 0.0000  plane waves:  109682
 k-point  48 :   0.5714 0.5714 0.0000  plane waves:  109704
 k-point  49 :   0.6071 0.6071 0.0000  plane waves:  109710
 k-point  50 :   0.6429 0.6429 0.0000  plane waves:  109696
 k-point  51 :   0.6786 0.6786 0.0000  plane waves:  109680
 k-point  52 :   0.7143 0.7143 0.0000  plane waves:  109630
 k-point  53 :   0.7500 0.7500 0.0000  plane waves:  109637
 k-point  54 :   0.7857 0.7857 0.0000  plane waves:  109659
 k-point  55 :   0.8214 0.8214 0.0000  plane waves:  109649
 k-point  56 :   0.8571 0.8571 0.0000  plane waves:  109701
 k-point  57 :   0.8929 0.8929 0.0000  plane waves:  109719
 k-point  58 :   0.9286 0.9286 0.0000  plane waves:  109763
 k-point  59 :   0.9643 0.9643 0.0000  plane waves:  109767
 k-point  60 :   1.0000 1.0000 0.0000  plane waves:  109783
 k-point  61 :   1.0000 1.0000 0.0000  plane waves:  109783
 k-point  62 :   1.0000 0.9643 0.0000  plane waves:  109783
 k-point  63 :   1.0000 0.9286 0.0000  plane waves:  109743
 k-point  64 :   1.0000 0.8929 0.0000  plane waves:  109733
 k-point  65 :   1.0000 0.8571 0.0000  plane waves:  109715
 k-point  66 :   1.0000 0.8214 0.0000  plane waves:  109703
 k-point  67 :   1.0000 0.7857 0.0000  plane waves:  109695
 k-point  68 :   1.0000 0.7500 0.0000  plane waves:  109649
 k-point  69 :   1.0000 0.7143 0.0000  plane waves:  109631
 k-point  70 :   1.0000 0.6786 0.0000  plane waves:  109626
 k-point  71 :   1.0000 0.6429 0.0000  plane waves:  109612
 k-point  72 :   1.0000 0.6071 0.0000  plane waves:  109626
 k-point  73 :   1.0000 0.5714 0.0000  plane waves:  109636
 k-point  74 :   1.0000 0.5357 0.0000  plane waves:  109624
 k-point  75 :   1.0000 0.5000 0.0000  plane waves:  109558
 k-point  76 :   1.0000 0.5000 0.0000  plane waves:  109558
 k-point  77 :   0.9643 0.5000 0.0000  plane waves:  109590
 k-point  78 :   0.9286 0.5000 0.0000  plane waves:  109618
 k-point  79 :   0.8929 0.5000 0.0000  plane waves:  109678
 k-point  80 :   0.8571 0.5000 0.0000  plane waves:  109678
 k-point  81 :   0.8214 0.5000 0.0000  plane waves:  109674
 k-point  82 :   0.7857 0.5000 0.0000  plane waves:  109710
 k-point  83 :   0.7500 0.5000 0.0000  plane waves:  109728
 k-point  84 :   0.7143 0.5000 0.0000  plane waves:  109742
 k-point  85 :   0.6786 0.5000 0.0000  plane waves:  109722
 k-point  86 :   0.6429 0.5000 0.0000  plane waves:  109714
 k-point  87 :   0.6071 0.5000 0.0000  plane waves:  109730
 k-point  88 :   0.5714 0.5000 0.0000  plane waves:  109682
 k-point  89 :   0.5357 0.5000 0.0000  plane waves:  109708
 k-point  90 :   0.5000 0.5000 0.0000  plane waves:  109784

 maximum and minimum number of plane-waves per node :      9199     9095

 maximum number of plane-waves:    109784
 maximum index in each direction: 
   IXMAX=   28   IYMAX=   28   IZMAX=   31
   IXMIN=  -29   IYMIN=  -29   IZMIN=  -31


 real space projection operators:
  total allocation   :       4175.03 KBytes
  max/ min on nodes  :        385.31        313.83


 parallel 3D FFT for wavefunctions:
    minimum data exchange during FFTs selected (reduces bandwidth)
 parallel 3D FFT for charge:
    minimum data exchange during FFTs selected (reduces bandwidth)


 total amount of memory used by VASP MPI-rank0  1136829. kBytes
=======================================================================

   base      :      30000. kBytes
   nonlr-proj:       2399. kBytes
   fftplans  :      11504. kBytes
   grid      :      28753. kBytes
   one-center:        186. kBytes
   wavefun   :    1063987. kBytes
 
     INWAV:  cpu time      0.0000: real time      0.0000
 initial charge density was supplied:
 number of electron     247.9999878 magnetization       0.0000000
 keeping initial charge density in first step


--------------------------------------------------------------------------------------------------------


 Maximum index for non-local projection operator          234
 Maximum index for augmentation-charges          393 (set IRDMAX)


--------------------------------------------------------------------------------------------------------


 First call to EWALD:  gamma=   0.109
 Maximum number of real-space cells 3x 3x 3
 Maximum number of reciprocal cells 3x 3x 3

    FEWALD:  cpu time      0.0015: real time      0.0016


--------------------------------------- Iteration      1(   1)  ---------------------------------------


    POTLOK:  cpu time      0.2230: real time      0.2412
    SETDIJ:  cpu time      0.0132: real time      0.0155
     EDDAV:  cpu time    134.5599: real time    134.6743
       DOS:  cpu time      0.0168: real time      0.0183
    --------------------------------------------
      LOOP:  cpu time    134.8130: real time    134.9495

 eigenvalue-minimisations  : 66016
 total energy-change (2. order) : 0.1909542E+04  (-0.8123431E+04)
 number of electron     247.9999878 magnetization       0.0000000
 augmentation part      247.9999878 magnetization       0.0000000

 Free energy of the ion-electron system (eV)
  ---------------------------------------------------
  alpha Z        PSCENC =        69.75935660
  Ewald energy   TEWEN  =     24017.32104616
  -Hartree energ DENC   =    -34433.96796553
  -exchange      EXHF   =         0.00000000
  -V(xc)+E(xc)   XCENC  =       917.66323763
  PAW double counting   =     24093.77024615   -24230.29059332
  entropy T*S    EENTRO =        -0.00412701
  eigenvalues    EBANDS =      -961.62185885
  atomic energy  EATOM  =     12436.91308043
  Solvation  Ediel_sol  =         0.00000000
  ---------------------------------------------------
  free energy    TOTEN  =      1909.54242226 eV

  energy without entropy =     1909.54654927  energy(sigma->0) =     1909.54379793


--------------------------------------------------------------------------------------------------------




--------------------------------------- Iteration      1(   2)  ---------------------------------------


     EDDAV:  cpu time    172.3777: real time    172.5072
       DOS:  cpu time      0.0193: real time      0.0193
    --------------------------------------------
      LOOP:  cpu time    172.3969: real time    172.5264

 eigenvalue-minimisations  : 90304
 total energy-change (2. order) :-0.1795052E+04  (-0.1682293E+04)
 number of electron     247.9999878 magnetization       0.0000000
 augmentation part      247.9999878 magnetization       0.0000000

 Free energy of the ion-electron system (eV)
  ---------------------------------------------------
  alpha Z        PSCENC =        69.75935660
  Ewald energy   TEWEN  =     24017.32104616
  -Hartree energ DENC   =    -34433.96796553
  -exchange      EXHF   =         0.00000000
  -V(xc)+E(xc)   XCENC  =       917.66323763
  PAW double counting   =     24093.77024615   -24230.29059332
  entropy T*S    EENTRO =         0.00107953
  eigenvalues    EBANDS =     -2756.67893105
  atomic energy  EATOM  =     12436.91308043
  Solvation  Ediel_sol  =         0.00000000
  ---------------------------------------------------
  free energy    TOTEN  =       114.49055661 eV

  energy without entropy =      114.48947707  energy(sigma->0) =      114.49019676


--------------------------------------------------------------------------------------------------------




--------------------------------------- Iteration      1(   3)  ---------------------------------------


     EDDAV:  cpu time    145.7268: real time    145.8478
       DOS:  cpu time      0.0209: real time      0.0209
    --------------------------------------------
      LOOP:  cpu time    145.7477: real time    145.8687

 eigenvalue-minimisations  : 73584
 total energy-change (2. order) :-0.5556812E+03  (-0.5436035E+03)
 number of electron     247.9999878 magnetization       0.0000000
 augmentation part      247.9999878 magnetization       0.0000000

 Free energy of the ion-electron system (eV)
  ---------------------------------------------------
  alpha Z        PSCENC =        69.75935660
  Ewald energy   TEWEN  =     24017.32104616
  -Hartree energ DENC   =    -34433.96796553
  -exchange      EXHF   =         0.00000000
  -V(xc)+E(xc)   XCENC  =       917.66323763
  PAW double counting   =     24093.77024615   -24230.29059332
  entropy T*S    EENTRO =         0.02217547
  eigenvalues    EBANDS =     -3312.38122553
  atomic energy  EATOM  =     12436.91308043
  Solvation  Ediel_sol  =         0.00000000
  ---------------------------------------------------
  free energy    TOTEN  =      -441.19064193 eV

  energy without entropy =     -441.21281740  energy(sigma->0) =     -441.19803375


--------------------------------------------------------------------------------------------------------




--------------------------------------- Iteration      1(   4)  ---------------------------------------


     EDDAV:  cpu time    142.1008: real time    142.1961
       DOS:  cpu time      0.0149: real time      0.0149
    --------------------------------------------
      LOOP:  cpu time    142.1157: real time    142.2110

 eigenvalue-minimisations  : 71208
 total energy-change (2. order) :-0.4352608E+02  (-0.4268215E+02)
 number of electron     247.9999878 magnetization       0.0000000
 augmentation part      247.9999878 magnetization       0.0000000

 Free energy of the ion-electron system (eV)
  ---------------------------------------------------
  alpha Z        PSCENC =        69.75935660
  Ewald energy   TEWEN  =     24017.32104616
[...]
   0.168E+03 0.108E+03 -.440E-11   -.173E+03 -.113E+03 -.208E-16   0.584E+01 0.544E+01 0.760E-22   -.290E-02 -.486E-02 0.130E-11
   0.168E+03 0.108E+03 -.224E-12   -.173E+03 -.113E+03 -.175E-16   0.582E+01 0.543E+01 -.411E-22   -.359E-02 -.555E-02 0.417E-12
   0.108E+03 -.168E+03 0.224E-11   -.113E+03 0.173E+03 0.267E-17   0.544E+01 -.584E+01 0.387E-22   -.486E-02 0.290E-02 0.504E-12
   0.108E+03 -.168E+03 0.395E-12   -.113E+03 0.173E+03 -.125E-16   0.543E+01 -.582E+01 -.456E-22   -.555E-02 0.359E-02 0.766E-12
   -.108E+03 0.168E+03 0.107E-11   0.113E+03 -.173E+03 -.174E-16   -.544E+01 0.584E+01 -.594E-23   0.486E-02 -.290E-02 0.218E-13
   -.108E+03 0.168E+03 -.336E-11   0.113E+03 -.173E+03 -.741E-17   -.543E+01 0.582E+01 0.265E-22   0.555E-02 -.359E-02 0.970E-12
   -.115E+03 -.523E+02 -.633E-12   0.116E+03 0.527E+02 -.755E-17   -.552E+00 -.568E+00 0.592E-22   0.141E-03 0.304E-02 0.612E-12
   -.115E+03 -.523E+02 -.363E-11   0.116E+03 0.527E+02 -.738E-17   -.528E+00 -.552E+00 -.474E-22   0.103E-02 0.390E-02 -.266E-14
   0.115E+03 0.523E+02 -.318E-11   -.116E+03 -.527E+02 -.660E-17   0.552E+00 0.568E+00 -.916E-22   -.141E-03 -.304E-02 0.896E-12
   0.115E+03 0.523E+02 -.107E-11   -.116E+03 -.527E+02 -.101E-16   0.528E+00 0.552E+00 0.484E-22   -.103E-02 -.390E-02 0.547E-12
   0.523E+02 -.115E+03 0.557E-11   -.527E+02 0.116E+03 0.124E-16   0.568E+00 -.552E+00 -.761E-22   -.304E-02 0.141E-03 0.865E-12
   0.523E+02 -.115E+03 -.409E-12   -.527E+02 0.116E+03 0.237E-17   0.552E+00 -.528E+00 -.426E-22   -.390E-02 0.103E-02 0.340E-12
   -.523E+02 0.115E+03 0.217E-11   0.527E+02 -.116E+03 -.116E-16   -.568E+00 0.552E+00 0.759E-22   0.304E-02 -.141E-03 0.489E-12
   -.523E+02 0.115E+03 0.183E-11   0.527E+02 -.116E+03 0.509E-17   -.552E+00 0.528E+00 0.582E-22   0.390E-02 -.103E-02 0.131E-11
   0.138E+02 0.113E+03 0.224E-11   -.114E+02 -.114E+03 0.721E-17   -.247E+01 0.104E+01 0.126E-21   -.188E-02 -.204E-02 0.305E-12
   0.139E+02 0.113E+03 -.844E-12   -.114E+02 -.114E+03 0.917E-17   -.248E+01 0.102E+01 0.213E-22   -.295E-02 -.262E-02 0.538E-12
   -.138E+02 -.113E+03 -.686E-12   0.114E+02 0.114E+03 0.885E-18   0.247E+01 -.104E+01 -.107E-21   0.188E-02 0.204E-02 0.922E-12
   -.139E+02 -.113E+03 0.526E-11   0.114E+02 0.114E+03 0.250E-17   0.248E+01 -.102E+01 -.261E-22   0.295E-02 0.262E-02 0.588E-12
   -.113E+03 0.138E+02 0.629E-12   0.114E+03 -.114E+02 -.179E-16   -.104E+01 -.247E+01 -.144E-21   0.204E-02 -.188E-02 0.466E-12
   -.113E+03 0.139E+02 0.213E-11   0.114E+03 -.114E+02 -.251E-17   -.102E+01 -.248E+01 -.120E-22   0.262E-02 -.295E-02 0.982E-12
   0.113E+03 -.138E+02 -.372E-11   -.114E+03 0.114E+02 -.216E-17   0.104E+01 0.247E+01 -.315E-21   -.204E-02 0.188E-02 0.184E-11
   0.113E+03 -.139E+02 0.809E-12   -.114E+03 0.114E+02 -.160E-16   0.102E+01 0.248E+01 0.121E-22   -.262E-02 0.295E-02 0.305E-12
   -.140E+03 -.147E+03 -.163E-11   0.142E+03 0.148E+03 -.175E-16   -.143E+01 -.125E+01 -.149E-22   0.255E-02 0.923E-03 0.683E-12
   -.140E+03 -.147E+03 -.459E-11   0.142E+03 0.148E+03 -.127E-16   -.142E+01 -.125E+01 -.968E-23   0.313E-02 0.103E-02 -.172E-12
   0.140E+03 0.147E+03 0.554E-11   -.142E+03 -.148E+03 -.133E-17   0.143E+01 0.125E+01 0.157E-22   -.255E-02 -.923E-03 0.534E-12
   0.140E+03 0.147E+03 0.719E-12   -.142E+03 -.148E+03 0.759E-20   0.142E+01 0.125E+01 0.159E-22   -.313E-02 -.103E-02 0.478E-12
   0.147E+03 -.140E+03 -.404E-11   -.148E+03 0.142E+03 0.348E-16   0.125E+01 -.143E+01 0.159E-22   -.923E-03 0.255E-02 0.137E-11
   0.147E+03 -.140E+03 -.372E-12   -.148E+03 0.142E+03 0.221E-16   0.125E+01 -.142E+01 -.117E-22   -.103E-02 0.313E-02 0.338E-12
   -.147E+03 0.140E+03 0.172E-12   0.148E+03 -.142E+03 -.178E-16   -.125E+01 0.143E+01 -.183E-22   0.923E-03 -.255E-02 0.590E-12
   -.147E+03 0.140E+03 -.367E-11   0.148E+03 -.142E+03 -.319E-17   -.125E+01 0.142E+01 0.131E-22   0.103E-02 -.313E-02 0.128E-11
   0.189E+02 -.551E+02 0.425E-12   -.341E+02 0.734E+02 0.177E-16   0.159E+02 -.183E+02 0.276E-22   -.811E-03 0.706E-02 0.779E-12
   0.189E+02 -.551E+02 0.324E-11   -.341E+02 0.734E+02 0.271E-16   0.159E+02 -.183E+02 0.231E-22   0.566E-03 0.865E-02 -.825E-12
   -.189E+02 0.551E+02 -.279E-12   0.341E+02 -.734E+02 0.238E-16   -.159E+02 0.183E+02 -.833E-23   -.566E-03 -.865E-02 0.498E-12
   -.189E+02 0.551E+02 0.350E-11   0.341E+02 -.734E+02 0.214E-16   -.159E+02 0.183E+02 0.381E-21   0.811E-03 -.706E-02 0.165E-11
   0.551E+02 0.189E+02 0.852E-12   -.734E+02 -.341E+02 -.113E-16   0.183E+02 0.159E+02 0.852E-22   -.865E-02 0.566E-03 0.974E-12
   0.551E+02 0.189E+02 -.363E-11   -.734E+02 -.341E+02 0.639E-17   0.183E+02 0.159E+02 -.103E-21   -.706E-02 -.811E-03 0.511E-12
   -.551E+02 -.189E+02 -.101E-11   0.734E+02 0.341E+02 -.128E-16   -.183E+02 -.159E+02 0.914E-22   0.706E-02 0.811E-03 -.744E-13
   -.551E+02 -.189E+02 -.495E-11   0.734E+02 0.341E+02 -.515E-17   -.183E+02 -.159E+02 0.174E-21   0.865E-02 -.566E-03 0.219E-11
   0.153E+03 0.200E+03 -.262E-11   -.183E+03 -.217E+03 0.863E-17   0.307E+02 0.166E+02 0.468E-21   -.589E-02 -.855E-02 -.139E-12
   0.153E+03 0.200E+03 0.862E-13   -.183E+03 -.217E+03 0.674E-17   0.307E+02 0.166E+02 -.981E-22   -.627E-02 -.924E-02 0.676E-12
   -.153E+03 -.200E+03 -.244E-11   0.183E+03 0.217E+03 -.206E-17   -.307E+02 -.166E+02 -.174E-21   0.589E-02 0.855E-02 0.105E-11
   -.153E+03 -.200E+03 0.401E-11   0.183E+03 0.217E+03 -.134E-16   -.307E+02 -.166E+02 0.891E-22   0.627E-02 0.924E-02 0.107E-11
   -.200E+03 0.153E+03 0.168E-11   0.217E+03 -.183E+03 0.556E-18   -.166E+02 0.307E+02 -.133E-21   0.855E-02 -.589E-02 0.593E-12
   -.200E+03 0.153E+03 0.279E-11   0.217E+03 -.183E+03 0.132E-16   -.166E+02 0.307E+02 0.157E-21   0.924E-02 -.627E-02 0.146E-11
   0.200E+03 -.153E+03 -.462E-11   -.217E+03 0.183E+03 0.311E-19   0.166E+02 -.307E+02 -.403E-21   -.855E-02 0.589E-02 0.262E-11
   0.200E+03 -.153E+03 0.256E-11   -.217E+03 0.183E+03 0.213E-17   0.166E+02 -.307E+02 -.176E-21   -.924E-02 0.627E-02 0.346E-13
 -----------------------------------------------------------------------------------------------
   -.622E-11 -.164E-10 -.148E-10   -.284E-13 -.142E-12 -.925E-16   -.711E-14 0.000E+00 -.130E-21   0.111E-10 -.383E-11 0.364E-10
 
 
 POSITION                                       TOTAL-FORCE (eV/Angst)
 -----------------------------------------------------------------------------------
      0.00000      0.00000      8.72496         0.000000      0.000000     -0.000000
      7.86711      7.86711      8.72496         0.000000      0.000000      0.000000
      3.33622     15.41811      8.72496         0.017245     -0.029803      0.000000
     11.20333      7.55100      8.72496         0.017994     -0.031238     -0.000000
     12.39800      0.31611      8.72496        -0.017245      0.029803      0.000000
      4.53089      8.18322      8.72496        -0.017994      0.031238     -0.000000
      8.18322     11.20333      8.72496         0.029803      0.017245     -0.000000
      0.31611      3.33622      8.72496         0.031238      0.017994     -0.000000
      7.55100      4.53089      8.72496        -0.029803     -0.017245     -0.000000
     15.41811     12.39800      8.72496        -0.031238     -0.017994     -0.000000
      5.82328     13.52208      8.72496         0.014740      0.019035     -0.000000
     13.69039      5.65497      8.72496         0.016155      0.019417      0.000000
      9.91094      2.21214      8.72496        -0.014740     -0.019035     -0.000000
      2.04383     10.07925      8.72496        -0.016155     -0.019417     -0.000000
     10.07925     13.69039      8.72496        -0.019035      0.014740      0.000000
      2.21214      5.82328      8.72496        -0.019417      0.016155     -0.000000
      5.65497      2.04383      8.72496         0.019035     -0.014740     -0.000000
     13.52208      9.91094      8.72496         0.019417     -0.016155      0.000000
      2.97048     14.39312      8.72496        -0.345990     -0.092435      0.000000
     10.83759      6.52601      8.72496        -0.354593     -0.093314      0.000000
     12.76374      1.34110      8.72496         0.345990      0.092435      0.000000
      4.89663      9.20821      8.72496         0.354593      0.093314      0.000000
      9.20821     10.83759      8.72496         0.092435     -0.345990      0.000000
      1.34110      2.97048      8.72496         0.093314     -0.354593     -0.000000
      6.52601      4.89663      8.72496        -0.092435      0.345990     -0.000000
     14.39312     12.76374      8.72496        -0.093314      0.354593      0.000000
      3.65896     13.16596      8.72496         0.082773     -0.127012     -0.000000
     11.52607      5.29885      8.72496         0.062920     -0.129377     -0.000000
     12.07526      2.56826      8.72496        -0.082773      0.127012      0.000000
      4.20815     10.43537      8.72496        -0.062920      0.129377     -0.000000
     10.43537     11.52607      8.72496         0.127012      0.082773      0.000000
      2.56826      3.65896      8.72496         0.129377      0.062920     -0.000000
      5.29885      4.20815      8.72496        -0.127012     -0.082773     -0.000000
     13.16596     12.07526      8.72496        -0.129377     -0.062920     -0.000000
     10.46572      4.32362      8.72496        -0.055972      0.223630      0.000000
      2.59861     12.19073      8.72496        -0.046528      0.214067      0.000000
      5.26850     11.41060      8.72496         0.055972     -0.223630     -0.000000
     13.13561      3.54349      8.72496         0.046528     -0.214067      0.000000
      3.54349      2.59861      8.72496        -0.223630     -0.055972      0.000000
     11.41060     10.46572      8.72496        -0.214067     -0.046528      0.000000
     12.19073     13.13561      8.72496         0.223630      0.055972     -0.000000
      4.32362      5.26850      8.72496         0.214067      0.046528     -0.000000
      5.01380     12.79133      8.72496        -0.145146      0.154149     -0.000000
     12.88091      4.92422      8.72496        -0.131683      0.146272      0.000000
     10.72042      2.94289      8.72496         0.145146     -0.154149      0.000000
      2.85331     10.81000      8.72496         0.131683     -0.146272      0.000000
     10.81000     12.88091      8.72496        -0.154149     -0.145146      0.000000
      2.94289      5.01380      8.72496        -0.146272     -0.131683     -0.000000
      4.92422      2.85331      8.72496         0.154149      0.145146     -0.000000
     12.79133     10.72042      8.72496         0.146272      0.131683     -0.000000
      1.61585     14.17152      8.72496         0.666777     -0.073483      0.000000
      9.48296      6.30441      8.72496         0.680560     -0.096804      0.000000
      6.25126      9.42981      8.72496        -0.680560      0.096804     -0.000000
     14.11837      1.56270      8.72496        -0.666777      0.073483      0.000000
      1.56270      1.61585      8.72496         0.096804      0.680560     -0.000000
      9.42981      9.48296      8.72496         0.073483      0.666777      0.000000
      6.30441      6.25126      8.72496        -0.073483     -0.666777      0.000000
     14.17152     14.11837      8.72496        -0.096804     -0.680560      0.000000
      9.26344      4.95884      8.72496         0.300452     -0.175368     -0.000000
      1.39633     12.82595      8.72496         0.284902     -0.182963     -0.000000
      6.47078     10.77538      8.72496        -0.300452      0.175368     -0.000000
     14.33789      2.90827      8.72496        -0.284902      0.182963      0.000000
      2.90827      1.39633      8.72496         0.175368      0.300452     -0.000000
     10.77538      9.26344      8.72496         0.182963      0.284902      0.000000
     12.82595     14.33789      8.72496        -0.175368     -0.300452     -0.000000
      4.95884      6.47078      8.72496        -0.182963     -0.284902      0.000000
 -----------------------------------------------------------------------------------
    total drift:                                0.000000     -0.000000      0.000000


--------------------------------------------------------------------------------------------------------



  FREE ENERGIE OF THE ION-ELECTRON SYSTEM (eV)
  ---------------------------------------------------
  free  energy   TOTEN  =      -485.96706272 eV

  energy  without entropy=     -485.99804910  energy(sigma->0) =     -485.97739152
 


--------------------------------------------------------------------------------------------------------


    POTLOK:  cpu time      0.2009: real time      0.2016


--------------------------------------------------------------------------------------------------------


     LOOP+:  cpu time   1630.5655: real time   1631.8942
    4ORBIT:  cpu time      0.0000: real time      0.0000



 total charge

# of ion       s       p       d       tot
------------------------------------------
    1        0.210   6.138   4.013  10.361
    2        0.210   6.138   4.013  10.361
    3        0.617   0.065   0.000   0.682
    4        0.618   0.065   0.000   0.682
    5        0.617   0.065   0.000   0.682
    6        0.618   0.065   0.000   0.682
    7        0.617   0.065   0.000   0.682
    8        0.618   0.065   0.000   0.682
    9        0.617   0.065   0.000   0.682
   10        0.618   0.065   0.000   0.682
   11        0.640   0.046   0.000   0.686
   12        0.640   0.046   0.000   0.686
   13        0.640   0.046   0.000   0.686
   14        0.640   0.046   0.000   0.686
   15        0.640   0.046   0.000   0.686
   16        0.640   0.046   0.000   0.686
   17        0.640   0.046   0.000   0.686
   18        0.640   0.046   0.000   0.686
   19        0.882   1.743   0.000   2.625
   20        0.882   1.742   0.000   2.624
   21        0.882   1.743   0.000   2.625
   22        0.882   1.742   0.000   2.624
   23        0.882   1.743   0.000   2.625
   24        0.882   1.742   0.000   2.624
   25        0.882   1.743   0.000   2.625
   26        0.882   1.742   0.000   2.624
   27        0.869   1.806   0.000   2.676
   28        0.869   1.807   0.000   2.676
   29        0.869   1.806   0.000   2.676
   30        0.869   1.807   0.000   2.676
   31        0.869   1.806   0.000   2.676
   32        0.869   1.807   0.000   2.676
   33        0.869   1.806   0.000   2.676
   34        0.869   1.807   0.000   2.676
   35        0.872   1.789   0.000   2.661
   36        0.872   1.789   0.000   2.661
   37        0.872   1.789   0.000   2.661
   38        0.872   1.789   0.000   2.661
   39        0.872   1.789   0.000   2.661
   40        0.872   1.789   0.000   2.661
   41        0.872   1.789   0.000   2.661
   42        0.872   1.789   0.000   2.661
   43        0.867   1.745   0.000   2.612
   44        0.867   1.744   0.000   2.611
   45        0.867   1.745   0.000   2.612
   46        0.867   1.744   0.000   2.611
   47        0.867   1.745   0.000   2.612
   48        0.867   1.744   0.000   2.611
   49        0.867   1.745   0.000   2.612
   50        0.867   1.744   0.000   2.611
   51        1.242   2.566   0.000   3.809
   52        1.242   2.567   0.000   3.809
   53        1.242   2.567   0.000   3.809
   54        1.242   2.566   0.000   3.809
   55        1.242   2.567   0.000   3.809
   56        1.242   2.566   0.000   3.809
   57        1.242   2.566   0.000   3.809
   58        1.242   2.567   0.000   3.809
   59        1.270   2.552   0.000   3.822
   60        1.270   2.552   0.000   3.822
   61        1.270   2.552   0.000   3.822
   62        1.270   2.552   0.000   3.822
   63        1.270   2.552   0.000   3.822
   64        1.270   2.552   0.000   3.822
   65        1.270   2.552   0.000   3.822
   66        1.270   2.552   0.000   3.822
--------------------------------------------------
tot         58.502 110.776   8.026 177.304



 magnetization (x)

# of ion       s       p       d       tot
------------------------------------------
    1        0.066   0.021   3.656   3.743
    2       -0.066  -0.021  -3.656  -3.743
    3       -0.003   0.001   0.000  -0.002
    4       -0.003   0.001   0.000  -0.001
    5       -0.003   0.001   0.000  -0.002
    6       -0.003   0.001   0.000  -0.001
    7        0.003  -0.001   0.000   0.002
    8        0.003  -0.001   0.000   0.001
    9        0.003  -0.001   0.000   0.002
   10        0.003  -0.001   0.000   0.001
   11       -0.003   0.002   0.000  -0.002
   12       -0.003   0.002   0.000  -0.002
   13       -0.003   0.002   0.000  -0.002
   14       -0.003   0.002   0.000  -0.002
   15        0.003  -0.002   0.000   0.002
   16        0.003  -0.002   0.000   0.002
   17        0.003  -0.002   0.000   0.002
   18        0.003  -0.002   0.000   0.002
   19        0.005   0.092   0.000   0.098
   20        0.005   0.082   0.000   0.088
   21        0.005   0.092   0.000   0.098
   22        0.005   0.082   0.000   0.088
   23       -0.005  -0.092   0.000  -0.098
   24       -0.005  -0.082   0.000  -0.088
   25       -0.005  -0.092   0.000  -0.098
   26       -0.005  -0.082   0.000  -0.088
   27       -0.003  -0.023   0.000  -0.025
   28       -0.002  -0.017   0.000  -0.019
   29       -0.003  -0.023   0.000  -0.025
   30       -0.002  -0.017   0.000  -0.019
   31        0.003   0.023   0.000   0.025
   32        0.002   0.017   0.000   0.019
   33        0.003   0.023   0.000   0.025
   34        0.002   0.017   0.000   0.019
   35       -0.002  -0.017   0.000  -0.019
   36       -0.003  -0.019   0.000  -0.022
   37       -0.002  -0.017   0.000  -0.019
   38       -0.003  -0.019   0.000  -0.022
   39        0.002   0.017   0.000   0.019
   40        0.003   0.019   0.000   0.022
   41        0.002   0.017   0.000   0.019
   42        0.003   0.019   0.000   0.022
   43        0.006   0.105   0.000   0.112
   44        0.006   0.105   0.000   0.112
   45        0.006   0.105   0.000   0.112
   46        0.006   0.105   0.000   0.112
   47       -0.006  -0.105   0.000  -0.112
   48       -0.006  -0.105   0.000  -0.112
   49       -0.006  -0.105   0.000  -0.112
   50       -0.006  -0.105   0.000  -0.112
   51       -0.010  -0.062   0.000  -0.072
   52        0.007   0.009   0.000   0.016
   53        0.007   0.009   0.000   0.016
   54       -0.010  -0.062   0.000  -0.072
   55       -0.007  -0.009   0.000  -0.016
   56        0.010   0.062   0.000   0.072
   57        0.010   0.062   0.000   0.072
   58       -0.007  -0.009   0.000  -0.016
   59        0.006   0.138   0.000   0.144
   60        0.004   0.146   0.000   0.150
   61        0.006   0.138   0.000   0.144
   62        0.004   0.146   0.000   0.150
   63       -0.006  -0.138   0.000  -0.144
   64       -0.004  -0.146   0.000  -0.150
   65       -0.006  -0.138   0.000  -0.144
   66       -0.004  -0.146   0.000  -0.150
--------------------------------------------------
tot          0.000  -0.000   0.000   0.000
 

 total amount of memory used by VASP MPI-rank0  1136829. kBytes
=======================================================================

   base      :      30000. kBytes
   nonlr-proj:       2399. kBytes
   fftplans  :      11504. kBytes
   grid      :      28753. kBytes
   one-center:        186. kBytes
   wavefun   :    1063987. kBytes
 
  
  
 General timing and accounting informations for this job:
 ========================================================
  
                  Total CPU time used (sec):     1793.326
                            User time (sec):     1782.566
                          System time (sec):       10.760
                         Elapsed time (sec):     1796.479
  
                   Maximum memory used (kb):     1404876.
                   Average memory used (kb):          N/A
  
                          Minor page faults:       190234
                          Major page faults:            0
                 Voluntary context switches:        55882
