 vasp.6.3.2 27Jun22 (build Aug 02 2025 14:55:03) complex                        
  
 executed on             LinuxIFC date 2026.02.02  11:07:13
 running on   48 total cores
 distrk:  each k-point on   48 cores,    1 groups
 distr:  one band on NCORE=  12 cores,    4 groups


--------------------------------------------------------------------------------------------------------


 INCAR:
   PREC = Normal
   ENCUT = 500
   IBRION = -1
   ISPIN = 2
   MAGMOM = 5 -5 4*1 4*-1 4*1 4*-1 4*1 4*-1 4*1 4*-1 4*1 4*-1 4*1 4*-1 4*1 4*-1 4*1 4*-1 4*1 4*-1 4*1 4*-1 4*1 4*-1 4*1 4*-1 4*1 4*-1 4*1 4*-1 4*1 4*-1 4*1 4*-1 4*1 4*-1 4*1 4*-1 4*1 4*-1 4*1 4*-1 4*1 4*-1 4*1 4*-1 4*1 4*-1 4*1 4*-1 4*1 4*-1 4*1 4*-1 4*1 4*-1 4*1 4*-1 4*1 4*-1 4*1 4*-1 4*1 4*-1 4*1 4*-1 4*1 4*-1 4*1 4*-1 4*1 4*-1 4*1 4*-1 4*1 4*-1 4*1 4*-1 4*1 4*-1
   NSW = 0
   NELM = 200
   ISIF = 2
   EDIFF = 1E-5
   EDIFFG = -0.01
   ALGO = Fast
   ISTART = 1
   ICHARG = 11
   LREAL = Auto
   LWAVE = .F.
   LCHARG = .F.
   LVTOT = .T.
   NPAR = 4
   AMIX = 0.2
   BMIX = 0.0001
   AMIX_MAG = 0.8
   BMIX_MAG = 0.0001
   LDAU = .TRUE.
   LDAUTYPE = 2
   LDAUL = 2 -1 -1 -1 -1 -1
   LDAUU = 3.0 0 0 0 0 0
   LDAUJ = 1.0 0 0 0 0 0
   LMAXMIX = 4
   LORBIT = 11

 POTCAR:    PAW_PBE Cr_pv 02Aug2007               
 POTCAR:    PAW_PBE H 15Jun2001                   
 POTCAR:    PAW_PBE C 08Apr2002                   
 POTCAR:    PAW_PBE N 08Apr2002                   
 POTCAR:    PAW_PBE O 08Apr2002                   
 WARNING: For LVTOT=.TRUE., VASP.5.x writes the TOTAL local potential to the
     file LOCPOT. If you want only the Hartree contributions, use LVHAR=.TRUE.
     instead. 

 POTCAR:    PAW_PBE Cr_pv 02Aug2007               
   SHA256 =  c9a7df34d3cdbacf1090e328ef39c0b420964e11c23f63548d1ac9dd218cdba0 Cr_pv/POTCAR          
   COPYR  = (c) Copyright 02Aug2007 Georg Kresse                                                    
   COPYR  = This file is part of the software VASP. Any use, copying, and all other rights are regul
   COPYR  = If you do not have a valid VASP license, you may not use, copy or distribute this file. 
   VRHFIN =Cr : p6d5s1                                                                              
   LEXCH  = PE                                                                                      
   EATOM  =  1647.9177 eV,  121.1185 Ry                                                             
                                                                                                    
   TITEL  = PAW_PBE Cr_pv 02Aug2007                                                                 
   LULTRA =        F    use ultrasoft PP ?                                                          
   IUNSCR =        1    unscreen: 0-lin 1-nonlin 2-no                                               
   RPACOR =    2.080    partial core radius                                                         
   POMASS =   51.996; ZVAL   =   12.000    mass and valenz                                          
   RCORE  =    2.300    outmost cutoff radius                                                       
   RWIGS  =    2.500; RWIGS  =    1.323    wigner-seitz radius (au A)                               
   ENMAX  =  265.681; ENMIN  =  199.261 eV                                                          
   ICORE  =        3    local potential                                                             
   LCOR   =        T    correct aug charges                                                         
   LPAW   =        T    paw PP                                                                      
   EAUG   =  519.424                                                                                
   DEXC   =    0.000                                                                                
   RMAX   =    2.356    core radius for proj-oper                                                   
   RAUG   =    1.300    factor for augmentation sphere                                              
   RDEP   =    2.447    radius for radial grids                                                     
   RDEPT  =    1.882    core radius for aug-charge                                                  
                                                                                                    
   Atomic configuration                                                                             
    8 entries                                                                                       
     n  l   j            E        occ.                                                              
     1  0  0.50     -5880.4963   2.0000                                                             
     2  0  0.50      -667.0865   2.0000                                                             
     2  1  1.50      -560.6250   6.0000                                                             
     3  0  0.50       -73.9860   2.0000                                                             
     3  1  1.50       -45.4378   6.0000                                                             
     3  2  2.50        -2.9137   5.0000                                                             
     4  0  0.50        -4.0071   1.0000                                                             
     4  3  2.50        -1.3606   0.0000                                                             
   Description                                                                                      
     l       E           TYP  RCUT    TYP  RCUT                                                     
     1    -45.4377911     23  2.000                                                                 
     1      1.3605826     23  2.000                                                                 
     2     -2.9136672     23  2.300                                                                 
     2     -4.2742498     23  2.300                                                                 
     0     -4.0071320     23  2.300                                                                 
     0      9.4498803     23  2.300                                                                 
     3      2.7211652     23  2.300                                                                 
  local pseudopotential read in
  partial core-charges read in
  partial kinetic energy density read in
  atomic valenz-charges read in
  non local Contribution for L=           1  read in
    real space projection operators read in
  non local Contribution for L=           1  read in
    real space projection operators read in
  non local Contribution for L=           2  read in
    real space projection operators read in
  non local Contribution for L=           2  read in
    real space projection operators read in
  non local Contribution for L=           0  read in
    real space projection operators read in
  non local Contribution for L=           0  read in
    real space projection operators read in
    PAW grid and wavefunctions read in
 
   number of l-projection  operators is LMAX  =           6
   number of lm-projection operators is LMMAX =          18
 
 POTCAR:    PAW_PBE H 15Jun2001                   
   SHA256 =  030f79b5d3ab3cf0e668861823c8fb652ff669f3e15e46930bd03bfd63a607b6 H/POTCAR              
   COPYR  = (c) Copyright 15Jun2001 Georg Kresse                                                    
   COPYR  = This file is part of the software VASP. Any use, copying, and all other rights are regul
   COPYR  = If you do not have a valid VASP license, you may not use, copy or distribute this file. 
   VRHFIN =H: ultrasoft test                                                                        
   LEXCH  = PE                                                                                      
   EATOM  =    12.4884 eV,    0.9179 Ry                                                             
                                                                                                    
   TITEL  = PAW_PBE H 15Jun2001                                                                     
   LULTRA =        F    use ultrasoft PP ?                                                          
   IUNSCR =        0    unscreen: 0-lin 1-nonlin 2-no                                               
   RPACOR =    0.000    partial core radius                                                         
   POMASS =    1.000; ZVAL   =    1.000    mass and valenz                                          
   RCORE  =    1.100    outmost cutoff radius                                                       
   RWIGS  =    0.700; RWIGS  =    0.370    wigner-seitz radius (au A)                               
   ENMAX  =  250.000; ENMIN  =  200.000 eV                                                          
   RCLOC  =    0.701    cutoff for local pot                                                        
   LCOR   =        T    correct aug charges                                                         
   LPAW   =        T    paw PP                                                                      
   EAUG   =  400.000                                                                                
   RMAX   =    1.123    core radius for proj-oper                                                   
   RAUG   =    1.200    factor for augmentation sphere                                              
   RDEP   =    1.112    radius for radial grids                                                     
   RDEPT  =    0.926    core radius for aug-charge                                                  
                                                                                                    
   Atomic configuration                                                                             
    2 entries                                                                                       
     n  l   j            E        occ.                                                              
     1  0  0.50        -6.4927   1.0000                                                             
     2  1  0.50        -3.4015   0.0000                                                             
   Description                                                                                      
     l       E           TYP  RCUT    TYP  RCUT                                                     
     0     -6.4927494     23  1.100                                                                 
     0      6.8029130     23  1.100                                                                 
     1     -4.0817478     23  1.100                                                                 
  local pseudopotential read in
  atomic valenz-charges read in
  non local Contribution for L=           0  read in
    real space projection operators read in
  non local Contribution for L=           0  read in
    real space projection operators read in
  non local Contribution for L=           1  read in
    real space projection operators read in
    PAW grid and wavefunctions read in
 
   number of l-projection  operators is LMAX  =           3
   number of lm-projection operators is LMMAX =           5
 
 POTCAR:    PAW_PBE C 08Apr2002                   
   SHA256 =  253f7b50bb8d59471dbedb8285d89021f4a42ed1a2c5d38a03a736e69125dd95 C/POTCAR              
   COPYR  = (c) Copyright 08Apr2002 Georg Kresse                                                    
   COPYR  = This file is part of the software VASP. Any use, copying, and all other rights are regul
   COPYR  = If you do not have a valid VASP license, you may not use, copy or distribute this file. 
   VRHFIN =C: s2p2                                                                                  
   LEXCH  = PE                                                                                      
   EATOM  =   147.1560 eV,   10.8157 Ry                                                             
                                                                                                    
   TITEL  = PAW_PBE C 08Apr2002                                                                     
   LULTRA =        F    use ultrasoft PP ?                                                          
   IUNSCR =        1    unscreen: 0-lin 1-nonlin 2-no                                               
   RPACOR =    1.200    partial core radius                                                         
   POMASS =   12.011; ZVAL   =    4.000    mass and valenz                                          
   RCORE  =    1.500    outmost cutoff radius                                                       
   RWIGS  =    1.630; RWIGS  =    0.863    wigner-seitz radius (au A)                               
   ENMAX  =  400.000; ENMIN  =  300.000 eV                                                          
   ICORE  =        2    local potential                                                             
   LCOR   =        T    correct aug charges                                                         
   LPAW   =        T    paw PP                                                                      
   EAUG   =  644.873                                                                                
   DEXC   =    0.000                                                                                
   RMAX   =    1.529    core radius for proj-oper                                                   
   RAUG   =    1.300    factor for augmentation sphere                                              
   RDEP   =    1.501    radius for radial grids                                                     
   RDEPT  =    1.300    core radius for aug-charge                                                  
                                                                                                    
   Atomic configuration                                                                             
    4 entries                                                                                       
     n  l   j            E        occ.                                                              
     1  0  0.50      -273.3789   2.0000                                                             
     2  0  0.50       -13.7508   2.0000                                                             
     2  1  0.50        -5.2854   2.0000                                                             
     3  2  1.50        -5.4423   0.0000                                                             
   Description                                                                                      
     l       E           TYP  RCUT    TYP  RCUT                                                     
     0    -13.7508458     23  1.200                                                                 
     0     -8.2022199     23  1.200                                                                 
     1     -5.2854383     23  1.500                                                                 
     1     34.0145650     23  1.500                                                                 
     2     -5.4423304      7  1.500                                                                 
  local pseudopotential read in
  partial core-charges read in
  partial kinetic energy density read in
  atomic valenz-charges read in
  non local Contribution for L=           0  read in
    real space projection operators read in
  non local Contribution for L=           0  read in
    real space projection operators read in
  non local Contribution for L=           1  read in
    real space projection operators read in
  non local Contribution for L=           1  read in
    real space projection operators read in
    PAW grid and wavefunctions read in
 
   number of l-projection  operators is LMAX  =           4
   number of lm-projection operators is LMMAX =           8
 
 POTCAR:    PAW_PBE N 08Apr2002                   
   SHA256 =  e053789ff3a61a86a1b75d8a110fcc91f86041011e7b0817c7c99e4e8a6349d7 N/POTCAR              
   COPYR  = (c) Copyright 08Apr2002 Georg Kresse                                                    
   COPYR  = This file is part of the software VASP. Any use, copying, and all other rights are regul
   COPYR  = If you do not have a valid VASP license, you may not use, copy or distribute this file. 
   VRHFIN =N: s2p3                                                                                  
   LEXCH  = PE                                                                                      
   EATOM  =   264.5486 eV,   19.4438 Ry                                                             
                                                                                                    
   TITEL  = PAW_PBE N 08Apr2002                                                                     
   LULTRA =        F    use ultrasoft PP ?                                                          
   IUNSCR =        1    unscreen: 0-lin 1-nonlin 2-no                                               
   RPACOR =    1.200    partial core radius                                                         
   POMASS =   14.001; ZVAL   =    5.000    mass and valenz                                          
   RCORE  =    1.500    outmost cutoff radius                                                       
   RWIGS  =    1.400; RWIGS  =    0.741    wigner-seitz radius (au A)                               
   ENMAX  =  400.000; ENMIN  =  300.000 eV                                                          
   ICORE  =        2    local potential                                                             
   LCOR   =        T    correct aug charges                                                         
   LPAW   =        T    paw PP                                                                      
   EAUG   =  627.112                                                                                
   DEXC   =    0.000                                                                                
   RMAX   =    1.529    core radius for proj-oper                                                   
   RAUG   =    1.300    factor for augmentation sphere                                              
   RDEP   =    1.514    radius for radial grids                                                     
   RDEPT  =    1.338    core radius for aug-charge                                                  
                                                                                                    
   Atomic configuration                                                                             
    4 entries                                                                                       
     n  l   j            E        occ.                                                              
     1  0  0.50      -384.7179   2.0000                                                             
     2  0  0.50       -18.5828   2.0000                                                             
     2  1  0.50        -7.0898   3.0000                                                             
     3  2  1.50        -6.8029   0.0000                                                             
   Description                                                                                      
     l       E           TYP  RCUT    TYP  RCUT                                                     
     0    -18.5828119     23  1.200                                                                 
     0    -13.5018863     23  1.200                                                                 
     1     -7.0897853     23  1.500                                                                 
     1      9.5240782     23  1.500                                                                 
     2     -6.8029130      7  1.500                                                                 
  local pseudopotential read in
  partial core-charges read in
  partial kinetic energy density read in
  atomic valenz-charges read in
  non local Contribution for L=           0  read in
    real space projection operators read in
  non local Contribution for L=           0  read in
    real space projection operators read in
  non local Contribution for L=           1  read in
    real space projection operators read in
  non local Contribution for L=           1  read in
    real space projection operators read in
    PAW grid and wavefunctions read in
 
   number of l-projection  operators is LMAX  =           4
   number of lm-projection operators is LMMAX =           8
 
 POTCAR:    PAW_PBE O 08Apr2002                   
   SHA256 =  818f92134a0a090dccd8ba1447fa70422a3b330e708bb4f08108d8ae51209ddf O/POTCAR              
   COPYR  = (c) Copyright 08Apr2002 Georg Kresse                                                    
   COPYR  = This file is part of the software VASP. Any use, copying, and all other rights are regul
   COPYR  = If you do not have a valid VASP license, you may not use, copy or distribute this file. 
   VRHFIN =O: s2p4                                                                                  
   LEXCH  = PE                                                                                      
   EATOM  =   432.3788 eV,   31.7789 Ry                                                             
                                                                                                    
   TITEL  = PAW_PBE O 08Apr2002                                                                     
   LULTRA =        F    use ultrasoft PP ?                                                          
   IUNSCR =        1    unscreen: 0-lin 1-nonlin 2-no                                               
   RPACOR =    1.200    partial core radius                                                         
   POMASS =   16.000; ZVAL   =    6.000    mass and valenz                                          
   RCORE  =    1.520    outmost cutoff radius                                                       
   RWIGS  =    1.550; RWIGS  =    0.820    wigner-seitz radius (au A)                               
   ENMAX  =  400.000; ENMIN  =  300.000 eV                                                          
   ICORE  =        2    local potential                                                             
   LCOR   =        T    correct aug charges                                                         
   LPAW   =        T    paw PP                                                                      
   EAUG   =  605.392                                                                                
   DEXC   =    0.000                                                                                
   RMAX   =    1.553    core radius for proj-oper                                                   
   RAUG   =    1.300    factor for augmentation sphere                                              
   RDEP   =    1.550    radius for radial grids                                                     
   RDEPT  =    1.329    core radius for aug-charge                                                  
                                                                                                    
   Atomic configuration                                                                             
    4 entries                                                                                       
     n  l   j            E        occ.                                                              
     1  0  0.50      -514.6923   2.0000                                                             
     2  0  0.50       -23.9615   2.0000                                                             
     2  1  0.50        -9.0305   4.0000                                                             
     3  2  1.50        -9.5241   0.0000                                                             
   Description                                                                                      
     l       E           TYP  RCUT    TYP  RCUT                                                     
     0    -23.9615318     23  1.200                                                                 
     0     -9.5240782     23  1.200                                                                 
     1     -9.0304911     23  1.520                                                                 
     1      8.1634956     23  1.520                                                                 
     2     -9.5240782      7  1.500                                                                 
  local pseudopotential read in
  partial core-charges read in
  partial kinetic energy density read in
  kinetic energy density of atom read in
  atomic valenz-charges read in
  non local Contribution for L=           0  read in
    real space projection operators read in
  non local Contribution for L=           0  read in
    real space projection operators read in
  non local Contribution for L=           1  read in
    real space projection operators read in
  non local Contribution for L=           1  read in
    real space projection operators read in
    PAW grid and wavefunctions read in
 
   number of l-projection  operators is LMAX  =           4
   number of lm-projection operators is LMMAX =           8
 
 Optimization of the real space projectors (new method)

 maximal supplied QI-value         = 16.25
 optimisation between [QCUT,QGAM] = [ 11.38, 22.75] = [ 36.24,144.96] Ry 
 Optimized for a Real-space Cutoff    1.31 Angstroem

   l    n(q)    QCUT    max X(q) W(low)/X(q) W(high)/X(q)  e(spline) 
   1      8    11.376     3.262    0.15E-03    0.36E-03    0.86E-07
   1      8    11.376     5.741    0.39E-03    0.84E-03    0.21E-06
   2      8    11.376    60.438    0.39E-03    0.55E-03    0.20E-06
   2      8    11.376    55.380    0.40E-03    0.57E-03    0.20E-06
   0      9    11.376    80.273    0.17E-03    0.16E-03    0.48E-07
   0      9    11.376    36.654    0.15E-03    0.14E-03    0.43E-07
 Optimization of the real space projectors (new method)

 maximal supplied QI-value         = 34.20
 optimisation between [QCUT,QGAM] = [ 11.29, 22.57] = [ 35.68,142.71] Ry 
 Optimized for a Real-space Cutoff    1.16 Angstroem

   l    n(q)    QCUT    max X(q) W(low)/X(q) W(high)/X(q)  e(spline) 
   0      8    11.287    19.460    0.40E-03    0.73E-03    0.16E-06
   0      8    11.287    12.209    0.38E-03    0.70E-03    0.15E-06
   1      7    11.287     4.655    0.22E-03    0.25E-04    0.22E-06
 Optimization of the real space projectors (new method)

 maximal supplied QI-value         = 25.13
 optimisation between [QCUT,QGAM] = [ 11.31, 22.87] = [ 35.82,146.48] Ry 
 Optimized for a Real-space Cutoff    1.00 Angstroem

   l    n(q)    QCUT    max X(q) W(low)/X(q) W(high)/X(q)  e(spline) 
   0      7    11.310   115.676    0.43E-03    0.13E-02    0.19E-06
   0      7    11.310    87.132    0.43E-03    0.13E-02    0.18E-06
   1      6    11.310     4.429    0.42E-03    0.74E-03    0.11E-06
   1      6    11.310     2.733    0.34E-03    0.55E-03    0.92E-07
 Optimization of the real space projectors (new method)

 maximal supplied QI-value         = 25.13
 optimisation between [QCUT,QGAM] = [ 11.31, 22.87] = [ 35.82,146.48] Ry 
 Optimized for a Real-space Cutoff    1.27 Angstroem

   l    n(q)    QCUT    max X(q) W(low)/X(q) W(high)/X(q)  e(spline) 
   0      9    11.310    79.467    0.75E-04    0.16E-03    0.36E-06
   0      9    11.310    66.151    0.74E-04    0.16E-03    0.36E-06
   1      8    11.310    17.416    0.35E-03    0.12E-03    0.95E-06
   1      8    11.310    12.382    0.37E-03    0.13E-03    0.98E-06
 Optimization of the real space projectors (new method)

 maximal supplied QI-value         = 24.76
 optimisation between [QCUT,QGAM] = [ 11.39, 22.77] = [ 36.31,145.25] Ry 
 Optimized for a Real-space Cutoff    1.00 Angstroem

   l    n(q)    QCUT    max X(q) W(low)/X(q) W(high)/X(q)  e(spline) 
   0      7    11.387    20.381    0.39E-03    0.13E-02    0.15E-06
   0      7    11.387    15.268    0.42E-03    0.14E-02    0.17E-06
   1      6    11.387     5.964    0.41E-03    0.11E-02    0.17E-06
   1      6    11.387     5.382    0.39E-03    0.87E-03    0.15E-06
  PAW_PBE Cr_pv 02Aug2007               :
 energy of atom  1       EATOM=-1647.9177
 kinetic energy error for atom=    0.0061 (will be added to EATOM!!)
  PAW_PBE H 15Jun2001                   :
 energy of atom  2       EATOM=  -12.4884
 kinetic energy error for atom=    0.0020 (will be added to EATOM!!)
  PAW_PBE C 08Apr2002                   :
 energy of atom  3       EATOM= -147.1560
 kinetic energy error for atom=    0.0076 (will be added to EATOM!!)
  PAW_PBE N 08Apr2002                   :
 energy of atom  4       EATOM= -264.5486
 kinetic energy error for atom=    0.0138 (will be added to EATOM!!)
  PAW_PBE O 08Apr2002                   :
 energy of atom  5       EATOM= -432.3788
 kinetic energy error for atom=    0.0224 (will be added to EATOM!!)
 
 
 POSCAR: Cr2 H40 C72 N8 O32
  positions in direct lattice
  No initial velocities read in
 exchange correlation table for  LEXCH =        8
   RHO(1)=    0.500       N(1)  =     2000
   RHO(2)=  100.500       N(2)  =     4000
 


--------------------------------------------------------------------------------------------------------


 ion  position               nearest neighbor table
   1  0.000  0.000  0.500- 124 2.18 126 2.18 127 2.18 129 2.18
   2  0.500  0.500  0.500- 123 2.18 125 2.18 128 2.18 130 2.18
   3  0.657  0.611  0.500- 116 1.02
   4  0.157  0.111  0.500- 115 1.02
   5  0.343  0.389  0.500- 117 1.02
   6  0.843  0.889  0.500- 118 1.02
   7  0.889  0.157  0.500- 119 1.02
   8  0.389  0.657  0.500- 120 1.02
   9  0.111  0.843  0.500- 122 1.02
  10  0.611  0.343  0.500- 121 1.02
  11  0.063  0.191  0.500-  67 1.09
  12  0.563  0.691  0.500-  68 1.09
  13  0.937  0.809  0.500-  69 1.09
  14  0.437  0.309  0.500-  70 1.09
  15  0.309  0.563  0.500-  71 1.09
  16  0.809  0.063  0.500-  72 1.09
  17  0.691  0.437  0.500-  73 1.09
  18  0.191  0.937  0.500-  74 1.09
  19  0.075  0.274  0.500-  75 1.09
  20  0.575  0.774  0.500-  76 1.09
  21  0.925  0.726  0.500-  77 1.09
  22  0.425  0.226  0.500-  78 1.09
  23  0.226  0.575  0.500-  79 1.09
  24  0.726  0.075  0.500-  80 1.09
  25  0.774  0.425  0.500-  81 1.09
  26  0.274  0.925  0.500-  82 1.09
  27  0.151  0.305  0.500-  83 1.09
  28  0.651  0.805  0.500-  84 1.09
  29  0.849  0.695  0.500-  85 1.09
  30  0.349  0.195  0.500-  86 1.09
  31  0.195  0.651  0.500-  87 1.09
  32  0.695  0.151  0.500-  88 1.09
  33  0.805  0.349  0.500-  89 1.09
  34  0.305  0.849  0.500-  90 1.09
  35  0.705  0.672  0.500- 100 1.09
  36  0.205  0.172  0.500-  99 1.09
  37  0.295  0.328  0.500- 102 1.09
  38  0.795  0.828  0.500- 101 1.09
  39  0.828  0.205  0.500- 104 1.09
  40  0.328  0.705  0.500- 103 1.09
  41  0.172  0.795  0.500- 106 1.09
  42  0.672  0.295  0.500- 105 1.09
  43  0.602  0.555  0.500- 139 1.23 123 1.32  52 1.56
  44  0.102  0.055  0.500- 140 1.23 124 1.32  51 1.56
  45  0.398  0.445  0.500- 141 1.23 125 1.32  54 1.56
  46  0.898  0.945  0.500- 142 1.23 126 1.32  53 1.56
  47  0.945  0.102  0.500- 143 1.23 127 1.32  56 1.56
  48  0.445  0.602  0.500- 144 1.23 128 1.32  55 1.56
  49  0.055  0.898  0.500- 145 1.23 129 1.32  58 1.56
  50  0.555  0.398  0.500- 146 1.23 130 1.32  57 1.56
  51  0.091  0.106  0.500- 131 1.23 115 1.36  44 1.56
  52  0.591  0.606  0.500- 132 1.23 116 1.36  43 1.56
  53  0.909  0.894  0.500- 133 1.23 118 1.36  46 1.56
  54  0.409  0.394  0.500- 134 1.23 117 1.36  45 1.56
  55  0.394  0.591  0.500- 135 1.23 120 1.36  48 1.56
  56  0.894  0.091  0.500- 136 1.23 119 1.36  47 1.56
  57  0.606  0.409  0.500- 137 1.23 121 1.36  50 1.56
  58  0.106  0.909  0.500- 138 1.23 122 1.36  49 1.56
  59  0.134  0.177  0.500-  99 1.40  67 1.40 115 1.40
  60  0.634  0.677  0.500- 100 1.40  68 1.40 116 1.40
  61  0.866  0.823  0.500- 101 1.40  69 1.40 118 1.40
  62  0.366  0.323  0.500- 102 1.40  70 1.40 117 1.40
  63  0.323  0.634  0.500- 103 1.40  71 1.40 120 1.40
  64  0.823  0.134  0.500- 104 1.40  72 1.40 119 1.40
  65  0.677  0.366  0.500- 105 1.40  73 1.40 121 1.40
  66  0.177  0.866  0.500- 106 1.40  74 1.40 122 1.40
  67  0.097  0.206  0.500-  11 1.09  75 1.40  59 1.40
  68  0.597  0.706  0.500-  12 1.09  76 1.40  60 1.40
  69  0.903  0.794  0.500-  13 1.09  77 1.40  61 1.40
  70  0.403  0.294  0.500-  14 1.09  78 1.40  62 1.40
  71  0.294  0.597  0.500-  15 1.09  79 1.40  63 1.40
  72  0.794  0.097  0.500-  16 1.09  80 1.40  64 1.40
  73  0.706  0.403  0.500-  17 1.09  81 1.40  65 1.40
  74  0.206  0.903  0.500-  18 1.09  82 1.40  66 1.40
  75  0.103  0.252  0.500-  19 1.09  83 1.39  67 1.40
  76  0.603  0.752  0.500-  20 1.09  84 1.39  68 1.40
  77  0.897  0.748  0.500-  21 1.09  85 1.39  69 1.40
  78  0.397  0.248  0.500-  22 1.09  86 1.39  70 1.40
  79  0.248  0.603  0.500-  23 1.09  87 1.39  71 1.40
  80  0.748  0.103  0.500-  24 1.09  88 1.39  72 1.40
  81  0.752  0.397  0.500-  25 1.09  89 1.39  73 1.40
  82  0.252  0.897  0.500-  26 1.09  90 1.39  74 1.40
  83  0.146  0.269  0.500-  27 1.09  75 1.39  91 1.41
  84  0.646  0.769  0.500-  28 1.09  76 1.39  92 1.41
  85  0.854  0.731  0.500-  29 1.09  77 1.39  93 1.41
  86  0.354  0.231  0.500-  30 1.09  78 1.39  94 1.41
  87  0.231  0.646  0.500-  31 1.09  79 1.39  95 1.41
  88  0.731  0.146  0.500-  32 1.09  80 1.39  96 1.41
  89  0.769  0.354  0.500-  33 1.09  81 1.39  97 1.41
  90  0.269  0.854  0.500-  34 1.09  82 1.39  98 1.41
  91  0.183  0.241  0.500-  99 1.41  83 1.41 107 1.49
  92  0.683  0.741  0.500- 100 1.41  84 1.41 108 1.49
  93  0.817  0.759  0.500- 101 1.41  85 1.41 109 1.49
  94  0.317  0.259  0.500- 102 1.41  86 1.41 110 1.49
  95  0.259  0.683  0.500- 103 1.41  87 1.41 111 1.49
  96  0.759  0.183  0.500- 104 1.41  88 1.41 112 1.49
  97  0.741  0.317  0.500- 105 1.41  89 1.41 113 1.49
  98  0.241  0.817  0.500- 106 1.41  90 1.41 114 1.49
  99  0.177  0.195  0.500-  36 1.09  59 1.40  91 1.41
 100  0.677  0.695  0.500-  35 1.09  60 1.40  92 1.41
 101  0.823  0.805  0.500-  38 1.09  61 1.40  93 1.41
 102  0.323  0.305  0.500-  37 1.09  62 1.40  94 1.41
 103  0.305  0.677  0.500-  40 1.09  63 1.40  95 1.41
 104  0.805  0.177  0.500-  39 1.09  64 1.40  96 1.41
 105  0.695  0.323  0.500-  42 1.09  65 1.40  97 1.41
 106  0.195  0.823  0.500-  41 1.09  66 1.40  98 1.41
 107  0.228  0.264  0.500- 147 1.23  91 1.49 110 1.57
 108  0.728  0.764  0.500- 148 1.23  92 1.49 109 1.57
 109  0.772  0.736  0.500- 149 1.23  93 1.49 108 1.57
 110  0.272  0.236  0.500- 150 1.23  94 1.49 107 1.57
 111  0.236  0.728  0.500- 151 1.23  95 1.49 114 1.57
 112  0.736  0.228  0.500- 152 1.23  96 1.49 113 1.57
 113  0.764  0.272  0.500- 153 1.23  97 1.49 112 1.57
 114  0.264  0.772  0.500- 154 1.23  98 1.49 111 1.57
 115  0.129  0.130  0.500-   4 1.02  51 1.36  59 1.40
 116  0.629  0.630  0.500-   3 1.02  52 1.36  60 1.40
 117  0.371  0.370  0.500-   5 1.02  54 1.36  62 1.40
 118  0.871  0.870  0.500-   6 1.02  53 1.36  61 1.40
 119  0.870  0.129  0.500-   7 1.02  56 1.36  64 1.40
 120  0.370  0.629  0.500-   8 1.02  55 1.36  63 1.40
 121  0.630  0.371  0.500-  10 1.02  57 1.36  65 1.40
 122  0.130  0.871  0.500-   9 1.02  58 1.36  66 1.40
 123  0.566  0.529  0.500-  43 1.32   2 2.18
 124  0.066  0.029  0.500-  44 1.32   1 2.18
 125  0.434  0.471  0.500-  45 1.32   2 2.18
 126  0.934  0.971  0.500-  46 1.32   1 2.18
 127  0.971  0.066  0.500-  47 1.32   1 2.18
 128  0.471  0.566  0.500-  48 1.32   2 2.18
 129  0.029  0.934  0.500-  49 1.32   1 2.18
 130  0.529  0.434  0.500-  50 1.32   2 2.18
 131  0.053  0.121  0.500-  51 1.23
 132  0.553  0.621  0.500-  52 1.23
 133  0.947  0.879  0.500-  53 1.23
 134  0.447  0.379  0.500-  54 1.23
 135  0.379  0.553  0.500-  55 1.23
 136  0.879  0.053  0.500-  56 1.23
 137  0.621  0.447  0.500-  57 1.23
 138  0.121  0.947  0.500-  58 1.23
 139  0.641  0.543  0.500-  43 1.23
 140  0.141  0.043  0.500-  44 1.23
 141  0.359  0.457  0.500-  45 1.23
 142  0.859  0.957  0.500-  46 1.23
 143  0.957  0.141  0.500-  47 1.23
 144  0.457  0.641  0.500-  48 1.23
 145  0.043  0.859  0.500-  49 1.23
 146  0.543  0.359  0.500-  50 1.23
 147  0.230  0.305  0.500- 107 1.23
 148  0.730  0.805  0.500- 108 1.23
 149  0.770  0.695  0.500- 109 1.23
 150  0.270  0.195  0.500- 110 1.23
 151  0.195  0.730  0.500- 111 1.23
 152  0.695  0.230  0.500- 112 1.23
 153  0.805  0.270  0.500- 113 1.23
 154  0.305  0.770  0.500- 114 1.23
 
  LATTYP: Found a simple tetragonal cell.
 ALAT       =    30.0308320865
 C/A-ratio  =     0.5677881362
  
  Lattice vectors:
  
 A1 = (  21.2350049970, -21.2350050290,   0.0000000000)
 A2 = (  21.2350050290,  21.2350049970,   0.0000000000)
 A3 = (   0.0000000000,   0.0000000000,  17.0511501795)


Analysis of symmetry for initial positions (statically):
=====================================================================
 Subroutine PRICEL returns following result:
 
  LATTYP: Found a simple tetragonal cell.
 ALAT       =    21.2350050130
 C/A-ratio  =     0.8029736828
  
  Lattice vectors:
  
 A1 = (  -0.0000000160, -21.2350050130,   0.0000000000)
 A2 = (  21.2350050130,  -0.0000000160,   0.0000000000)
 A3 = (   0.0000000000,   0.0000000000,  17.0511501795)
 
   2 primitive cells build up your supercell.
 

 Routine SETGRP: Setting up the symmetry group for a 
 simple tetragonal supercell.


 Subroutine GETGRP returns: Found  8 space group operations
 (whereof  8 operations were pure point group operations)
 out of a pool of 16 trial point group operations.


The static configuration has the point symmetry C_4h.


Analysis of symmetry for dynamics (positions and initial velocities):
=====================================================================
 Subroutine PRICEL returns following result:
 
  LATTYP: Found a simple tetragonal cell.
 ALAT       =    21.2350050130
 C/A-ratio  =     0.8029736828
  
  Lattice vectors:
  
 A1 = (  -0.0000000160, -21.2350050130,   0.0000000000)
 A2 = (  21.2350050130,  -0.0000000160,   0.0000000000)
 A3 = (   0.0000000000,   0.0000000000,  17.0511501795)
 
   2 primitive cells build up your supercell.
 

 Routine SETGRP: Setting up the symmetry group for a 
 simple tetragonal supercell.


 Subroutine GETGRP returns: Found  8 space group operations
 (whereof  8 operations were pure point group operations)
 out of a pool of 16 trial point group operations.


The dynamic configuration has the point symmetry C_4h.


Analysis of structural, dynamic, and magnetic symmetry:
=====================================================================
 Subroutine PRICEL returns:
 Original cell was already a primitive cell.
 

 Routine SETGRP: Setting up the symmetry group for a 
 simple tetragonal supercell.


 Subroutine GETGRP returns: Found  8 space group operations
 (whereof  4 operations were pure point group operations)
 out of a pool of 16 trial point group operations.


The overall configuration has the point symmetry C_2h.
 The point group associated with its full space group is C_4h.


 Subroutine INISYM returns: Found  8 space group operations
 (whereof  4 operations are pure point group operations),
 and found     1 'primitive' translations


----------------------------------------------------------------------------------------

                                     Primitive cell                                     

  volume of cell :   15377.5947

  direct lattice vectors                    reciprocal lattice vectors
    21.235004997-21.235005029  0.000000000     0.023546027 -0.023546027  0.000000000
    21.235005029 21.235004997  0.000000000     0.023546027  0.023546027  0.000000000
     0.000000000  0.000000000 17.051150180    -0.000000000 -0.000000000  0.058647070

  length of vectors
    30.030832086 30.030832086 17.051150180     0.033299111  0.033299111  0.058647070

  position of ions in fractional coordinates (direct lattice)
     0.000000000  0.000000000  0.500000000
     0.500000000  0.500000000  0.500000000
     0.657358824  0.611305078  0.500000000
     0.157358824  0.111305078  0.500000000
     0.342641176  0.388694922  0.500000000
     0.842641176  0.888694922  0.500000000
     0.888694922  0.157358824  0.500000000
     0.388694922  0.657358824  0.500000000
     0.111305078  0.842641176  0.500000000
     0.611305078  0.342641176  0.500000000
     0.063248904  0.191394962  0.500000000
     0.563248904  0.691394962  0.500000000
     0.936751096  0.808605038  0.500000000
     0.436751096  0.308605038  0.500000000
     0.308605038  0.563248904  0.500000000
     0.808605038  0.063248904  0.500000000
     0.691394962  0.436751096  0.500000000
     0.191394962  0.936751096  0.500000000
     0.074639390  0.273615410  0.500000000
     0.574639390  0.773615410  0.500000000
     0.925360610  0.726384590  0.500000000
     0.425360610  0.226384590  0.500000000
     0.226384590  0.574639390  0.500000000
     0.726384590  0.074639390  0.500000000
     0.773615410  0.425360610  0.500000000
     0.273615410  0.925360610  0.500000000
     0.151457592  0.305194636  0.500000000
     0.651457592  0.805194636  0.500000000
     0.848542408  0.694805364  0.500000000
     0.348542408  0.194805364  0.500000000
     0.194805364  0.651457592  0.500000000
     0.694805364  0.151457592  0.500000000
     0.805194636  0.348542408  0.500000000
     0.305194636  0.848542408  0.500000000
     0.705319000  0.672220392  0.500000000
     0.205319000  0.172220392  0.500000000
     0.294681000  0.327779608  0.500000000
     0.794681000  0.827779608  0.500000000
     0.827779608  0.205319000  0.500000000
     0.327779608  0.705319000  0.500000000
     0.172220392  0.794681000  0.500000000
     0.672220392  0.294681000  0.500000000
     0.601670991  0.555248052  0.500000000
     0.101670991  0.055248052  0.500000000
     0.398329009  0.444751948  0.500000000
     0.898329009  0.944751948  0.500000000
     0.944751948  0.101670991  0.500000000
     0.444751948  0.601670991  0.500000000
     0.055248052  0.898329009  0.500000000
     0.555248052  0.398329009  0.500000000
     0.091111817  0.106195023  0.500000000
     0.591111817  0.606195023  0.500000000
     0.908888183  0.893804977  0.500000000
     0.408888183  0.393804977  0.500000000
     0.393804977  0.591111817  0.500000000
     0.893804977  0.091111817  0.500000000
     0.606195023  0.408888183  0.500000000
     0.106195023  0.908888183  0.500000000
     0.133618528  0.177002340  0.500000000
     0.633618528  0.677002340  0.500000000
     0.866381472  0.822997660  0.500000000
     0.366381472  0.322997660  0.500000000
     0.322997660  0.633618528  0.500000000
     0.822997660  0.133618528  0.500000000
     0.677002340  0.366381472  0.500000000
     0.177002340  0.866381472  0.500000000
     0.096601704  0.205543027  0.500000000
     0.596601704  0.705543027  0.500000000
     0.903398296  0.794456973  0.500000000
     0.403398296  0.294456973  0.500000000
     0.294456973  0.596601704  0.500000000
     0.794456973  0.096601704  0.500000000
     0.705543027  0.403398296  0.500000000
     0.205543027  0.903398296  0.500000000
     0.103462189  0.251538577  0.500000000
     0.603462189  0.751538577  0.500000000
     0.896537811  0.748461423  0.500000000
     0.396537811  0.248461423  0.500000000
     0.248461423  0.603462189  0.500000000
     0.748461423  0.103462189  0.500000000
     0.751538577  0.396537811  0.500000000
     0.251538577  0.896537811  0.500000000
     0.146064688  0.269342539  0.500000000
     0.646064688  0.769342539  0.500000000
     0.853935312  0.730657461  0.500000000
     0.353935312  0.230657461  0.500000000
     0.230657461  0.646064688  0.500000000
     0.730657461  0.146064688  0.500000000
     0.769342539  0.353935312  0.500000000
     0.269342539  0.853935312  0.500000000
     0.183487798  0.240900631  0.500000000
     0.683487798  0.740900631  0.500000000
     0.816512202  0.759099369  0.500000000
     0.316512202  0.259099369  0.500000000
     0.259099369  0.683487798  0.500000000
     0.759099369  0.183487798  0.500000000
     0.740900631  0.316512202  0.500000000
     0.240900631  0.816512202  0.500000000
     0.176846003  0.194565623  0.500000000
     0.676846003  0.694565623  0.500000000
     0.823153997  0.805434377  0.500000000
     0.323153997  0.305434377  0.500000000
     0.305434377  0.676846003  0.500000000
     0.805434377  0.176846003  0.500000000
     0.694565623  0.323153997  0.500000000
     0.194565623  0.823153997  0.500000000
     0.227666548  0.263707857  0.500000000
     0.727666548  0.763707857  0.500000000
     0.772333452  0.736292143  0.500000000
     0.272333452  0.236292143  0.500000000
     0.236292143  0.727666548  0.500000000
     0.736292143  0.227666548  0.500000000
     0.763707857  0.272333452  0.500000000
     0.263707857  0.772333452  0.500000000
     0.129263188  0.130460649  0.500000000
     0.629263188  0.630460649  0.500000000
     0.370736812  0.369539351  0.500000000
     0.870736812  0.869539351  0.500000000
     0.869539351  0.129263188  0.500000000
     0.369539351  0.629263188  0.500000000
     0.630460649  0.370736812  0.500000000
     0.130460649  0.870736812  0.500000000
     0.566476565  0.529188364  0.500000000
     0.066476565  0.029188364  0.500000000
     0.433523435  0.470811636  0.500000000
     0.933523435  0.970811636  0.500000000
     0.970811636  0.066476565  0.500000000
     0.470811636  0.566476565  0.500000000
     0.029188364  0.933523435  0.500000000
     0.529188364  0.433523435  0.500000000
     0.052882327  0.120712393  0.500000000
     0.552882327  0.620712393  0.500000000
     0.947117673  0.879287607  0.500000000
     0.447117673  0.379287607  0.500000000
     0.379287607  0.552882327  0.500000000
     0.879287607  0.052882327  0.500000000
     0.620712393  0.447117673  0.500000000
     0.120712393  0.947117673  0.500000000
     0.640622226  0.543077236  0.500000000
     0.140622226  0.043077236  0.500000000
     0.359377774  0.456922764  0.500000000
     0.859377774  0.956922764  0.500000000
     0.956922764  0.140622226  0.500000000
     0.456922764  0.640622226  0.500000000
     0.043077236  0.859377774  0.500000000
     0.543077236  0.359377774  0.500000000
     0.229756729  0.304647155  0.500000000
     0.729756729  0.804647155  0.500000000
     0.770243271  0.695352845  0.500000000
     0.270243271  0.195352845  0.500000000
     0.195352845  0.729756729  0.500000000
     0.695352845  0.229756729  0.500000000
     0.804647155  0.270243271  0.500000000
     0.304647155  0.770243271  0.500000000

  ion indices of the primitive-cell ions
   primitive index   ion index
                 1           1
                 2           2
                 3           3
                 4           4
                 5           5
                 6           6
                 7           7
                 8           8
                 9           9
                10          10
                11          11
                12          12
                13          13
                14          14
                15          15
                16          16
                17          17
                18          18
                19          19
                20          20
                21          21
                22          22
                23          23
                24          24
                25          25
                26          26
                27          27
                28          28
                29          29
                30          30
                31          31
                32          32
                33          33
                34          34
                35          35
                36          36
                37          37
                38          38
                39          39
                40          40
                41          41
                42          42
                43          43
                44          44
                45          45
                46          46
                47          47
                48          48
                49          49
                50          50
                51          51
                52          52
                53          53
                54          54
                55          55
                56          56
                57          57
                58          58
                59          59
                60          60
                61          61
                62          62
                63          63
                64          64
                65          65
                66          66
                67          67
                68          68
                69          69
                70          70
                71          71
                72          72
                73          73
                74          74
                75          75
                76          76
                77          77
                78          78
                79          79
                80          80
                81          81
                82          82
                83          83
                84          84
                85          85
                86          86
                87          87
                88          88
                89          89
                90          90
                91          91
                92          92
                93          93
                94          94
                95          95
                96          96
                97          97
                98          98
                99          99
               100         100
               101         101
               102         102
               103         103
               104         104
               105         105
               106         106
               107         107
               108         108
               109         109
               110         110
               111         111
               112         112
               113         113
               114         114
               115         115
               116         116
               117         117
               118         118
               119         119
               120         120
               121         121
               122         122
               123         123
               124         124
               125         125
               126         126
               127         127
               128         128
               129         129
               130         130
               131         131
               132         132
               133         133
               134         134
               135         135
               136         136
               137         137
               138         138
               139         139
               140         140
               141         141
               142         142
               143         143
               144         144
               145         145
               146         146
               147         147
               148         148
               149         149
               150         150
               151         151
               152         152
               153         153
               154         154

----------------------------------------------------------------------------------------

 
 
 KPOINTS: K-Path Generated by VASPKIT.            

Interpolating k-points between supplied coordinates.

 Line segments in fractional coordinates (reciprocal lattice):
    0.500000  0.500000  0.000000  ...  0.500000  0.000000  0.000000
    0.500000  0.000000  0.000000  ...  1.000000  0.000000  0.000000
    1.000000  0.000000  0.000000  ...  0.500000  0.500000  0.000000
    0.500000  0.500000  0.000000  ...  1.000000  1.000000  0.000000
    1.000000  1.000000  0.000000  ...  1.000000  0.500000  0.000000
    1.000000  0.500000  0.000000  ...  0.500000  0.500000  0.000000

 Generated     7 points on each line segment, for a total of     42 k-points:

 Following reciprocal coordinates:
            Coordinates               Weight
  0.500000  0.500000  0.000000      0.023810
  0.500000  0.416667  0.000000      0.023810
  0.500000  0.333333  0.000000      0.023810
  0.500000  0.250000  0.000000      0.023810
  0.500000  0.166667  0.000000      0.023810
  0.500000  0.083333  0.000000      0.023810
  0.500000  0.000000  0.000000      0.023810
  0.500000  0.000000  0.000000      0.023810
  0.583333  0.000000  0.000000      0.023810
  0.666667  0.000000  0.000000      0.023810
  0.750000  0.000000  0.000000      0.023810
  0.833333  0.000000  0.000000      0.023810
  0.916667  0.000000  0.000000      0.023810
  1.000000  0.000000  0.000000      0.023810
  1.000000  0.000000  0.000000      0.023810
  0.916667  0.083333  0.000000      0.023810
  0.833333  0.166667  0.000000      0.023810
  0.750000  0.250000  0.000000      0.023810
  0.666667  0.333333  0.000000      0.023810
  0.583333  0.416667  0.000000      0.023810
  0.500000  0.500000  0.000000      0.023810
  0.500000  0.500000  0.000000      0.023810
  0.583333  0.583333  0.000000      0.023810
  0.666667  0.666667  0.000000      0.023810
  0.750000  0.750000  0.000000      0.023810
  0.833333  0.833333  0.000000      0.023810
  0.916667  0.916667  0.000000      0.023810
  1.000000  1.000000  0.000000      0.023810
  1.000000  1.000000  0.000000      0.023810
  1.000000  0.916667  0.000000      0.023810
  1.000000  0.833333  0.000000      0.023810
  1.000000  0.750000  0.000000      0.023810
  1.000000  0.666667  0.000000      0.023810
  1.000000  0.583333  0.000000      0.023810
  1.000000  0.500000  0.000000      0.023810
  1.000000  0.500000  0.000000      0.023810
  0.916667  0.500000  0.000000      0.023810
  0.833333  0.500000  0.000000      0.023810
  0.750000  0.500000  0.000000      0.023810
  0.666667  0.500000  0.000000      0.023810
  0.583333  0.500000  0.000000      0.023810
  0.500000  0.500000  0.000000      0.023810

 Following cartesian coordinates:
            Coordinates               Weight
  0.023546 -0.000000  0.000000      0.023810
  0.021584 -0.001962  0.000000      0.023810
  0.019622 -0.003924  0.000000      0.023810
  0.017660 -0.005887  0.000000      0.023810
  0.015697 -0.007849  0.000000      0.023810
  0.013735 -0.009811  0.000000      0.023810
  0.011773 -0.011773  0.000000      0.023810
  0.011773 -0.011773  0.000000      0.023810
  0.013735 -0.013735  0.000000      0.023810
  0.015697 -0.015697  0.000000      0.023810
  0.017660 -0.017660  0.000000      0.023810
  0.019622 -0.019622  0.000000      0.023810
  0.021584 -0.021584  0.000000      0.023810
  0.023546 -0.023546  0.000000      0.023810
  0.023546 -0.023546  0.000000      0.023810
  0.023546 -0.019622  0.000000      0.023810
  0.023546 -0.015697  0.000000      0.023810
  0.023546 -0.011773  0.000000      0.023810
  0.023546 -0.007849  0.000000      0.023810
  0.023546 -0.003924  0.000000      0.023810
  0.023546 -0.000000  0.000000      0.023810
  0.023546 -0.000000  0.000000      0.023810
  0.027470 -0.000000  0.000000      0.023810
  0.031395 -0.000000  0.000000      0.023810
  0.035319 -0.000000  0.000000      0.023810
  0.039243 -0.000000  0.000000      0.023810
  0.043168 -0.000000  0.000000      0.023810
  0.047092 -0.000000  0.000000      0.023810
  0.047092 -0.000000  0.000000      0.023810
  0.045130 -0.001962  0.000000      0.023810
  0.043168 -0.003924  0.000000      0.023810
  0.041206 -0.005887  0.000000      0.023810
  0.039243 -0.007849  0.000000      0.023810
  0.037281 -0.009811  0.000000      0.023810
  0.035319 -0.011773  0.000000      0.023810
  0.035319 -0.011773  0.000000      0.023810
  0.033357 -0.009811  0.000000      0.023810
  0.031395 -0.007849  0.000000      0.023810
  0.029433 -0.005887  0.000000      0.023810
  0.027470 -0.003924  0.000000      0.023810
  0.025508 -0.001962  0.000000      0.023810
  0.023546 -0.000000  0.000000      0.023810
 


--------------------------------------------------------------------------------------------------------




 Dimension of arrays:
   k-points           NKPTS =     42   k-points in BZ     NKDIM =     42   number of bands    NBANDS=    372
   number of dos      NEDOS =    301   number of ions     NIONS =    154
   non local maximal  LDIM  =      6   non local SUM 2l+1 LMDIM =     18
   total plane-waves  NPLWV = ******
   max r-space proj   IRMAX =   1709   max aug-charges    IRDMAX=   6330
   dimension x,y,z NGX =   168 NGY =  168 NGZ =   96
   dimension x,y,z NGXF=   336 NGYF=  336 NGZF=  192
   support grid    NGXF=   336 NGYF=  336 NGZF=  192
   ions per type =               2  40  72   8  32
   NGX,Y,Z   is equivalent  to a cutoff of   9.30,  9.30,  9.36 a.u.
   NGXF,Y,Z  is equivalent  to a cutoff of  18.60, 18.60, 18.72 a.u.

 SYSTEM =  unknown system                          
 POSCAR =  Cr2 H40 C72 N8 O32                      

 Startparameter for this run:
   NWRITE =      2    write-flag & timer
   PREC   = normal    normal or accurate (medium, high low for compatibility)
   ISTART =      0    job   : 0-new  1-cont  2-samecut
   ICHARG =     11    charge: 1-file 2-atom 10-const
   ISPIN  =      2    spin polarized calculation?
   LNONCOLLINEAR =      F non collinear calculations
   LSORBIT =      F    spin-orbit coupling
   INIWAV =      1    electr: 0-lowe 1-rand  2-diag
   LASPH  =      F    aspherical Exc in radial PAW
 Electronic Relaxation 1
   ENCUT  =  500.0 eV  36.75 Ry    6.06 a.u.  54.75 54.75 31.09*2*pi/ulx,y,z
   ENINI  =  500.0     initial cutoff
   ENAUG  =  644.9 eV  augmentation charge cutoff
   NELM   =    200;   NELMIN=  2; NELMDL=  0     # of ELM steps 
   EDIFF  = 0.1E-04   stopping-criterion for ELM
   LREAL  =      T    real-space projection
   NLSPLINE    = F    spline interpolate recip. space projectors
   LCOMPAT=      F    compatible to vasp.4.4
   GGA_COMPAT  = T    GGA compatible to vasp.4.4-vasp.4.6
   LMAXPAW     = -100 max onsite density
   LMAXMIX     =    4 max onsite mixed and CHGCAR
   VOSKOWN=      0    Vosko Wilk Nusair interpolation
   ROPT   =   -0.00050  -0.00050  -0.00050  -0.00050
   ROPT   =   -0.00050
 Ionic relaxation
   EDIFFG = -.1E-01   stopping-criterion for IOM
   NSW    =      0    number of steps for IOM
   NBLOCK =      1;   KBLOCK =      1    inner block; outer block 
   IBRION =     -1    ionic relax: 0-MD 1-quasi-New 2-CG
   NFREE  =      0    steps in history (QN), initial steepest desc. (CG)
   ISIF   =      2    stress and relaxation
   IWAVPR =     10    prediction:  0-non 1-charg 2-wave 3-comb
   ISYM   =      2    0-nonsym 1-usesym 2-fastsym
   LCORR  =      T    Harris-Foulkes like correction to forces

   POTIM  = 0.5000    time-step for ionic-motion
   TEIN   =    0.0    initial temperature
   TEBEG  =    0.0;   TEEND  =   0.0 temperature during run
   SMASS  =  -3.00    Nose mass-parameter (am)
   estimated Nose-frequenzy (Omega)   =  0.10E-29 period in steps = 0.13E+47 mass=  -0.206E-25a.u.
   SCALEE = 1.0000    scale energy and forces
   NPACO  =    256;   APACO  = 10.0  distance and # of slots for P.C.
   PSTRESS=    0.0 pullay stress

  Mass of Ions in am
   POMASS =  52.00  1.00 12.01 14.00 16.00
  Ionic Valenz
   ZVAL   =  12.00  1.00  4.00  5.00  6.00
  Atomic Wigner-Seitz radii
   RWIGS  =  -1.00 -1.00 -1.00 -1.00 -1.00
  virtual crystal weights 
   VCA    =   1.00  1.00  1.00  1.00  1.00
   NELECT =     584.0000    total number of electrons
   NUPDOWN=      -1.0000    fix difference up-down

 DOS related values:
   EMIN   =  10.00;   EMAX   =-10.00  energy-range for DOS
   EFERMI =   0.00
   ISMEAR =     1;   SIGMA  =   0.20  broadening in eV -4-tet -1-fermi 0-gaus

 Electronic relaxation 2 (details)
   IALGO  =     68    algorithm
   LDIAG  =      T    sub-space diagonalisation (order eigenvalues)
   LSUBROT=      F    optimize rotation matrix (better conditioning)
   TURBO    =      0    0=normal 1=particle mesh
   IRESTART =      0    0=no restart 2=restart with 2 vectors
   NREBOOT  =      0    no. of reboots
   NMIN     =      0    reboot dimension
   EREF     =   0.00    reference energy to select bands
   IMIX   =      4    mixing-type and parameters
     AMIX     =   0.20;   BMIX     =  0.00
     AMIX_MAG =   0.80;   BMIX_MAG =  0.00
     AMIN     =   0.10
     WC   =   100.;   INIMIX=   1;  MIXPRE=   1;  MAXMIX= -45

 Intra band minimization:
   WEIMIN = 0.0000     energy-eigenvalue tresh-hold
   EBREAK =  0.67E-08  absolut break condition
   DEPER  =   0.30     relativ break condition  

   TIME   =   0.40     timestep for ELM

  volume/ion in A,a.u.               =      99.85       673.85
  Fermi-wavevector in a.u.,A,eV,Ry     =   0.550279  1.039877  4.119940  0.302807
  Thomas-Fermi vector in A             =   1.581777
 
 Write flags
   LWAVE        =      F    write WAVECAR
   LDOWNSAMPLE  =      F    k-point downsampling of WAVECAR
   LCHARG       =      F    write CHGCAR
   LVTOT        =      T    write LOCPOT, total local potential
   LVHAR        =      F    write LOCPOT, Hartree potential only
   LELF         =      F    write electronic localiz. function (ELF)
   LORBIT       =     11    0 simple, 1 ext, 2 COOP (PROOUT), +10 PAW based schemes


 Dipole corrections
   LMONO  =      F    monopole corrections only (constant potential shift)
   LDIPOL =      F    correct potential (dipole corrections)
   IDIPOL =      0    1-x, 2-y, 3-z, 4-all directions 
   EPSILON=  1.0000000 bulk dielectric constant

 LDA+U is selected, type is set to LDAUTYPE =  2
   angular momentum for each species LDAUL =     2   -1   -1   -1   -1
   U (eV)           for each species LDAUU =   3.0  0.0  0.0  0.0  0.0
   J (eV)           for each species LDAUJ =   1.0  0.0  0.0  0.0  0.0
 Exchange correlation treatment:
   GGA     =    --    GGA type
   LEXCH   =     8    internal setting for exchange type
   LIBXC   =     F    Libxc                    
   VOSKOWN =     0    Vosko Wilk Nusair interpolation
   LHFCALC =     F    Hartree Fock is set to
   LHFONE  =     F    Hartree Fock one center treatment
   AEXX    =    0.0000 exact exchange contribution

 Linear response parameters
   LEPSILON=     F    determine dielectric tensor
   LRPA    =     F    only Hartree local field effects (RPA)
   LNABLA  =     F    use nabla operator in PAW spheres
   LVEL    =     F    velocity operator in full k-point grid
   CSHIFT  =0.1000    complex shift for real part using Kramers Kronig
   OMEGAMAX=  -1.0    maximum frequency
   DEG_THRESHOLD= 0.2000000E-02 threshold for treating states as degnerate
   RTIME   =   -0.100 relaxation time in fs
  (WPLASMAI=    0.000 imaginary part of plasma frequency in eV, 0.658/RTIME)
   DFIELD  = 0.0000000 0.0000000 0.0000000 field for delta impulse in time
 
  Optional k-point grid parameters
   LKPOINTS_OPT  =     F    use optional k-point grid
   KPOINTS_OPT_MODE=     1    mode for optional k-point grid
 
 Orbital magnetization related:
   ORBITALMAG=     F  switch on orbital magnetization
   LCHIMAG   =     F  perturbation theory with respect to B field
   DQ        =  0.001000  dq finite difference perturbation B field
   LLRAUG    =     F  two centre corrections for induced B field



--------------------------------------------------------------------------------------------------------


 Static calculation
 charge density and potential remain constant during run
 spin polarized calculation
 RMM-DIIS sequential band-by-band and
  variant of blocked Davidson during initial phase
 perform sub-space diagonalisation
    before iterative eigenvector-optimisation
 no mixing
 using additional bands           80
 real space projection scheme for non local part
 use partial core corrections
 calculate Harris-corrections to forces 
   (improved forces if not selfconsistent)
 use gradient corrections 
 WARNING: stress and forces are not correct
  (second derivative of E(xc) not defined)
 use of overlap-Matrix (Vanderbilt PP)
 Methfessel and Paxton  Order N= 1 SIGMA  =   0.20


--------------------------------------------------------------------------------------------------------


  energy-cutoff  :      500.00
  volume of cell :    15377.59
      direct lattice vectors                 reciprocal lattice vectors
    21.235004997-21.235005029  0.000000000     0.023546027 -0.023546027  0.000000000
    21.235005029 21.235004997  0.000000000     0.023546027  0.023546027  0.000000000
     0.000000000  0.000000000 17.051150180    -0.000000000 -0.000000000  0.058647070

  length of vectors
    30.030832086 30.030832086 17.051150180     0.033299111  0.033299111  0.058647070


 
 k-points in units of 2pi/SCALE and weight: K-Path Generated by VASPKIT.            
   0.02354603 -0.00000000  0.00000000       0.024
   0.02158386 -0.00196217  0.00000000       0.024
   0.01962169 -0.00392434  0.00000000       0.024
   0.01765952 -0.00588651  0.00000000       0.024
   0.01569735 -0.00784868  0.00000000       0.024
   0.01373518 -0.00981084  0.00000000       0.024
   0.01177301 -0.01177301  0.00000000       0.024
   0.01177301 -0.01177301  0.00000000       0.024
   0.01373518 -0.01373518  0.00000000       0.024
   0.01569735 -0.01569735  0.00000000       0.024
   0.01765952 -0.01765952  0.00000000       0.024
   0.01962169 -0.01962169  0.00000000       0.024
   0.02158386 -0.02158386  0.00000000       0.024
   0.02354603 -0.02354603  0.00000000       0.024
   0.02354603 -0.02354603  0.00000000       0.024
   0.02354603 -0.01962169  0.00000000       0.024
   0.02354603 -0.01569735  0.00000000       0.024
   0.02354603 -0.01177301  0.00000000       0.024
   0.02354603 -0.00784868  0.00000000       0.024
   0.02354603 -0.00392434  0.00000000       0.024
   0.02354603 -0.00000000  0.00000000       0.024
   0.02354603 -0.00000000  0.00000000       0.024
   0.02747036 -0.00000000  0.00000000       0.024
   0.03139470 -0.00000000  0.00000000       0.024
   0.03531904 -0.00000000  0.00000000       0.024
   0.03924338 -0.00000000  0.00000000       0.024
   0.04316772 -0.00000000  0.00000000       0.024
   0.04709205 -0.00000000  0.00000000       0.024
   0.04709205 -0.00000000  0.00000000       0.024
   0.04512988 -0.00196217  0.00000000       0.024
   0.04316772 -0.00392434  0.00000000       0.024
   0.04120555 -0.00588651  0.00000000       0.024
   0.03924338 -0.00784868  0.00000000       0.024
   0.03728121 -0.00981084  0.00000000       0.024
   0.03531904 -0.01177301  0.00000000       0.024
   0.03531904 -0.01177301  0.00000000       0.024
   0.03335687 -0.00981084  0.00000000       0.024
   0.03139470 -0.00784868  0.00000000       0.024
   0.02943253 -0.00588651  0.00000000       0.024
   0.02747036 -0.00392434  0.00000000       0.024
   0.02550820 -0.00196217  0.00000000       0.024
   0.02354603 -0.00000000  0.00000000       0.024
 
 k-points in reciprocal lattice and weights: K-Path Generated by VASPKIT.            
   0.50000000  0.50000000  0.00000000       0.024
   0.50000000  0.41666667  0.00000000       0.024
   0.50000000  0.33333333  0.00000000       0.024
   0.50000000  0.25000000  0.00000000       0.024
   0.50000000  0.16666667  0.00000000       0.024
   0.50000000  0.08333333  0.00000000       0.024
   0.50000000  0.00000000  0.00000000       0.024
   0.50000000  0.00000000  0.00000000       0.024
   0.58333333  0.00000000  0.00000000       0.024
   0.66666667  0.00000000  0.00000000       0.024
   0.75000000  0.00000000  0.00000000       0.024
   0.83333333  0.00000000  0.00000000       0.024
   0.91666667  0.00000000  0.00000000       0.024
   1.00000000  0.00000000  0.00000000       0.024
   1.00000000  0.00000000  0.00000000       0.024
   0.91666667  0.08333333  0.00000000       0.024
   0.83333333  0.16666667  0.00000000       0.024
   0.75000000  0.25000000  0.00000000       0.024
   0.66666667  0.33333333  0.00000000       0.024
   0.58333333  0.41666667  0.00000000       0.024
   0.50000000  0.50000000  0.00000000       0.024
   0.50000000  0.50000000  0.00000000       0.024
   0.58333333  0.58333333  0.00000000       0.024
   0.66666667  0.66666667  0.00000000       0.024
   0.75000000  0.75000000  0.00000000       0.024
   0.83333333  0.83333333  0.00000000       0.024
   0.91666667  0.91666667  0.00000000       0.024
   1.00000000  1.00000000  0.00000000       0.024
   1.00000000  1.00000000  0.00000000       0.024
   1.00000000  0.91666667  0.00000000       0.024
   1.00000000  0.83333333  0.00000000       0.024
   1.00000000  0.75000000  0.00000000       0.024
   1.00000000  0.66666667  0.00000000       0.024
   1.00000000  0.58333333  0.00000000       0.024
   1.00000000  0.50000000  0.00000000       0.024
   1.00000000  0.50000000  0.00000000       0.024
   0.91666667  0.50000000  0.00000000       0.024
   0.83333333  0.50000000  0.00000000       0.024
   0.75000000  0.50000000  0.00000000       0.024
   0.66666667  0.50000000  0.00000000       0.024
   0.58333333  0.50000000  0.00000000       0.024
   0.50000000  0.50000000  0.00000000       0.024
 
 position of ions in fractional coordinates (direct lattice) 
   0.00000000  0.00000000  0.50000000
   0.50000000  0.50000000  0.50000000
   0.65735882  0.61130508  0.50000000
   0.15735882  0.11130508  0.50000000
   0.34264118  0.38869492  0.50000000
   0.84264118  0.88869492  0.50000000
   0.88869492  0.15735882  0.50000000
   0.38869492  0.65735882  0.50000000
   0.11130508  0.84264118  0.50000000
   0.61130508  0.34264118  0.50000000
   0.06324890  0.19139496  0.50000000
   0.56324890  0.69139496  0.50000000
   0.93675110  0.80860504  0.50000000
   0.43675110  0.30860504  0.50000000
   0.30860504  0.56324890  0.50000000
   0.80860504  0.06324890  0.50000000
   0.69139496  0.43675110  0.50000000
   0.19139496  0.93675110  0.50000000
   0.07463939  0.27361541  0.50000000
   0.57463939  0.77361541  0.50000000
   0.92536061  0.72638459  0.50000000
   0.42536061  0.22638459  0.50000000
   0.22638459  0.57463939  0.50000000
   0.72638459  0.07463939  0.50000000
   0.77361541  0.42536061  0.50000000
   0.27361541  0.92536061  0.50000000
   0.15145759  0.30519464  0.50000000
   0.65145759  0.80519464  0.50000000
   0.84854241  0.69480536  0.50000000
   0.34854241  0.19480536  0.50000000
   0.19480536  0.65145759  0.50000000
   0.69480536  0.15145759  0.50000000
   0.80519464  0.34854241  0.50000000
   0.30519464  0.84854241  0.50000000
   0.70531900  0.67222039  0.50000000
   0.20531900  0.17222039  0.50000000
   0.29468100  0.32777961  0.50000000
   0.79468100  0.82777961  0.50000000
   0.82777961  0.20531900  0.50000000
   0.32777961  0.70531900  0.50000000
   0.17222039  0.79468100  0.50000000
   0.67222039  0.29468100  0.50000000
   0.60167099  0.55524805  0.50000000
   0.10167099  0.05524805  0.50000000
   0.39832901  0.44475195  0.50000000
   0.89832901  0.94475195  0.50000000
   0.94475195  0.10167099  0.50000000
   0.44475195  0.60167099  0.50000000
   0.05524805  0.89832901  0.50000000
   0.55524805  0.39832901  0.50000000
   0.09111182  0.10619502  0.50000000
   0.59111182  0.60619502  0.50000000
   0.90888818  0.89380498  0.50000000
   0.40888818  0.39380498  0.50000000
   0.39380498  0.59111182  0.50000000
   0.89380498  0.09111182  0.50000000
   0.60619502  0.40888818  0.50000000
   0.10619502  0.90888818  0.50000000
   0.13361853  0.17700234  0.50000000
   0.63361853  0.67700234  0.50000000
   0.86638147  0.82299766  0.50000000
   0.36638147  0.32299766  0.50000000
   0.32299766  0.63361853  0.50000000
   0.82299766  0.13361853  0.50000000
   0.67700234  0.36638147  0.50000000
   0.17700234  0.86638147  0.50000000
   0.09660170  0.20554303  0.50000000
   0.59660170  0.70554303  0.50000000
   0.90339830  0.79445697  0.50000000
   0.40339830  0.29445697  0.50000000
   0.29445697  0.59660170  0.50000000
   0.79445697  0.09660170  0.50000000
   0.70554303  0.40339830  0.50000000
   0.20554303  0.90339830  0.50000000
   0.10346219  0.25153858  0.50000000
   0.60346219  0.75153858  0.50000000
   0.89653781  0.74846142  0.50000000
   0.39653781  0.24846142  0.50000000
   0.24846142  0.60346219  0.50000000
   0.74846142  0.10346219  0.50000000
   0.75153858  0.39653781  0.50000000
   0.25153858  0.89653781  0.50000000
   0.14606469  0.26934254  0.50000000
   0.64606469  0.76934254  0.50000000
   0.85393531  0.73065746  0.50000000
   0.35393531  0.23065746  0.50000000
   0.23065746  0.64606469  0.50000000
   0.73065746  0.14606469  0.50000000
   0.76934254  0.35393531  0.50000000
   0.26934254  0.85393531  0.50000000
   0.18348780  0.24090063  0.50000000
   0.68348780  0.74090063  0.50000000
   0.81651220  0.75909937  0.50000000
   0.31651220  0.25909937  0.50000000
   0.25909937  0.68348780  0.50000000
   0.75909937  0.18348780  0.50000000
   0.74090063  0.31651220  0.50000000
   0.24090063  0.81651220  0.50000000
   0.17684600  0.19456562  0.50000000
   0.67684600  0.69456562  0.50000000
   0.82315400  0.80543438  0.50000000
   0.32315400  0.30543438  0.50000000
   0.30543438  0.67684600  0.50000000
   0.80543438  0.17684600  0.50000000
   0.69456562  0.32315400  0.50000000
   0.19456562  0.82315400  0.50000000
   0.22766655  0.26370786  0.50000000
   0.72766655  0.76370786  0.50000000
   0.77233345  0.73629214  0.50000000
   0.27233345  0.23629214  0.50000000
   0.23629214  0.72766655  0.50000000
   0.73629214  0.22766655  0.50000000
   0.76370786  0.27233345  0.50000000
   0.26370786  0.77233345  0.50000000
   0.12926319  0.13046065  0.50000000
   0.62926319  0.63046065  0.50000000
   0.37073681  0.36953935  0.50000000
   0.87073681  0.86953935  0.50000000
   0.86953935  0.12926319  0.50000000
   0.36953935  0.62926319  0.50000000
   0.63046065  0.37073681  0.50000000
   0.13046065  0.87073681  0.50000000
   0.56647656  0.52918836  0.50000000
   0.06647656  0.02918836  0.50000000
   0.43352344  0.47081164  0.50000000
   0.93352344  0.97081164  0.50000000
   0.97081164  0.06647656  0.50000000
   0.47081164  0.56647656  0.50000000
   0.02918836  0.93352344  0.50000000
   0.52918836  0.43352344  0.50000000
   0.05288233  0.12071239  0.50000000
   0.55288233  0.62071239  0.50000000
   0.94711767  0.87928761  0.50000000
   0.44711767  0.37928761  0.50000000
   0.37928761  0.55288233  0.50000000
   0.87928761  0.05288233  0.50000000
   0.62071239  0.44711767  0.50000000
   0.12071239  0.94711767  0.50000000
   0.64062223  0.54307724  0.50000000
   0.14062223  0.04307724  0.50000000
   0.35937777  0.45692276  0.50000000
   0.85937777  0.95692276  0.50000000
   0.95692276  0.14062223  0.50000000
   0.45692276  0.64062223  0.50000000
   0.04307724  0.85937777  0.50000000
   0.54307724  0.35937777  0.50000000
   0.22975673  0.30464715  0.50000000
   0.72975673  0.80464715  0.50000000
   0.77024327  0.69535285  0.50000000
   0.27024327  0.19535285  0.50000000
   0.19535285  0.72975673  0.50000000
   0.69535285  0.22975673  0.50000000
   0.80464715  0.27024327  0.50000000
   0.30464715  0.77024327  0.50000000
 
 position of ions in cartesian coordinates  (Angst):
   0.00000000  0.00000000  8.52557509
  21.23500501 -0.00000002  8.52557509
  26.94008430 -0.97795155  8.52557509
   5.70507929 -0.97795153  8.52557509
  15.52992573  0.97795152  8.52557509
  36.76493074  0.97795150  8.52557509
  22.21295653-15.52992574  8.52557509
  22.21295655  5.70507927  8.52557509
  20.25705350 15.52992571  8.52557509
  20.25705348 -5.70507930  8.52557509
   5.40736378  2.72118219  8.52557509
  26.64236879  2.72118217  8.52557509
  37.06264625 -2.72118222  8.52557509
  15.82764124 -2.72118221  8.52557509
  18.51382282  5.40736376  8.52557509
  18.51382281-15.82764125  8.52557509
  23.95618720 -5.40736379  8.52557509
  23.95618722 15.82764122  8.52557509
   7.39519241  4.22525678  8.52557509
  28.63019742  4.22525676  8.52557509
  35.07481762 -4.22525681  8.52557509
  13.83981260 -4.22525679  8.52557509
  17.00974824  7.39519239  8.52557509
  17.00974822-13.83981262  8.52557509
  25.46026179 -7.39519243  8.52557509
  25.46026181 13.83981259  8.52557509
   9.69701236  3.26460691  8.52557509
  30.93201737  3.26460689  8.52557509
  32.77299767 -3.26460694  8.52557509
  11.53799266 -3.26460692  8.52557509
  17.97039810  9.69701234  8.52557509
  17.97039809-11.53799267  8.52557509
  24.49961192 -9.69701237  8.52557509
  24.49961194 11.53799264  8.52557509
  29.25205591 -0.70284913  8.52557509
   8.01705090 -0.70284911  8.52557509
  13.21795412  0.70284910  8.52557509
  34.45295913  0.70284908  8.52557509
  21.93785411-13.21795413  8.52557509
  21.93785413  8.01705088  8.52557509
  20.53215592 13.21795410  8.52557509
  20.53215590 -8.01705091  8.52557509
  24.56718169 -0.98579135  8.52557509
   3.33217668 -0.98579134  8.52557509
  17.90282834  0.98579132  8.52557509
  39.13783335  0.98579131  8.52557509
  22.22079633-17.90282835  8.52557509
  22.22079635  3.33217666  8.52557509
  20.24921369 17.90282832  8.52557509
  20.24921368 -3.33217669  8.52557509
   4.18981173  0.32029194  8.52557509
  25.42481674  0.32029192  8.52557509
  38.28019829 -0.32029197  8.52557509
  17.04519328 -0.32029195  8.52557509
  20.91471308  4.18981172  8.52557509
  20.91471306-17.04519330  8.52557509
  21.55529695 -4.18981175  8.52557509
  21.55529697 17.04519327  8.52557509
   6.59603569  0.92125547  8.52557509
  27.83104070  0.92125545  8.52557509
  35.87397434 -0.92125550  8.52557509
  14.63896933 -0.92125548  8.52557509
  20.31374955  6.59603567  8.52557509
  20.31374953-14.63896934  8.52557509
  22.15626048 -6.59603570  8.52557509
  22.15626050 14.63896931  8.52557509
   6.41604487  2.31336953  8.52557509
  27.65104989  2.31336951  8.52557509
  36.05396515 -2.31336956  8.52557509
  14.81896014 -2.31336955  8.52557509
  18.92163548  6.41604486  8.52557509
  18.92163547-14.81896016  8.52557509
  23.54837454 -6.41604489  8.52557509
  23.54837456 14.81896012  8.52557509
   7.53844305  3.14440283  8.52557509
  28.77344807  3.14440281  8.52557509
  34.93156697 -3.14440286  8.52557509
  13.69656196 -3.14440284  8.52557509
  18.09060219  7.53844304  8.52557509
  18.09060217-13.69656198  8.52557509
  24.37940784 -7.53844307  8.52557509
  24.37940786 13.69656194  8.52557509
   8.82117455  2.61780577  8.52557509
  30.05617956  2.61780575  8.52557509
  33.64883548 -2.61780580  8.52557509
  12.41383047 -2.61780578  8.52557509
  18.61719924  8.82117453  8.52557509
  18.61719923-12.41383048  8.52557509
  23.85281078 -8.82117456  8.52557509
  23.85281080 12.41383045  8.52557509
   9.01189042  1.21916181  8.52557509
  30.24689543  1.21916179  8.52557509
  33.45811961 -1.21916184  8.52557509
  12.22311460 -1.21916182  8.52557509
  20.01584321  9.01189040  8.52557509
  20.01584319-12.22311461  8.52557509
  22.45416682 -9.01189043  8.52557509
  22.45416684 12.22311458  8.52557509
   7.88692774  0.37627623  8.52557509
  29.12193275  0.37627621  8.52557509
  34.58308229 -0.37627626  8.52557509
  13.34807727 -0.37627624  8.52557509
  20.85872879  7.88692772  8.52557509
  20.85872877-13.34807729  8.52557509
  21.61128124 -7.88692776  8.52557509
  21.61128126 13.34807726  8.52557509
  10.43433797  0.76533737  8.52557509
  31.66934298  0.76533736  8.52557509
  32.03567206 -0.76533740  8.52557509
  10.80066705 -0.76533739  8.52557509
  20.46966764 10.43433795  8.52557509
  20.46966762-10.80066706  8.52557509
  22.00034239-10.43433798  8.52557509
  22.00034240 10.80066703  8.52557509
   5.51523699  0.02542810  8.52557509
  26.75024200  0.02542808  8.52557509
  15.71976802 -0.02542811  8.52557509
  36.95477304 -0.02542813  8.52557509
  21.20957690-15.71976804  8.52557509
[...]
     20.85873      7.88693      8.52558         0.020593     -0.015443      0.000000
     20.85873    -13.34808      8.52558         0.025384     -0.005861      0.000000
     21.61128     -7.88693      8.52558        -0.020593      0.015443     -0.000000
     21.61128     13.34808      8.52558        -0.025384      0.005861     -0.000000
     10.43434      0.76534      8.52558         0.017857     -0.010934      0.000000
     31.66934      0.76534      8.52558         0.025941     -0.012405      0.000000
     32.03567     -0.76534      8.52558        -0.017857      0.010934     -0.000000
     10.80067     -0.76534      8.52558        -0.025941      0.012405     -0.000000
     20.46967     10.43434      8.52558         0.010934      0.017857      0.000000
     20.46967    -10.80067      8.52558         0.012405      0.025941      0.000000
     22.00034    -10.43434      8.52558        -0.010934     -0.017857     -0.000000
     22.00034     10.80067      8.52558        -0.012405     -0.025941     -0.000000
      5.51524      0.02543      8.52558        -0.071320      0.098976      0.000000
     26.75024      0.02543      8.52558        -0.063786      0.103890      0.000000
     15.71977     -0.02543      8.52558         0.063786     -0.103890     -0.000000
     36.95477     -0.02543      8.52558         0.071320     -0.098976     -0.000000
     21.20958    -15.71977      8.52558        -0.103890     -0.063786     -0.000000
     21.20958      5.51524      8.52558        -0.098976     -0.071320     -0.000000
     21.26043     -5.51524      8.52558         0.098976      0.071320      0.000000
     21.26043     15.71977      8.52558         0.103890      0.063786      0.000000
     23.26645     -0.79182      8.52558         0.468710      0.210280      0.000000
      2.03145     -0.79182      8.52558         0.466188      0.211256      0.000000
     19.20356      0.79182      8.52558        -0.468710     -0.210280     -0.000000
     40.43856      0.79182      8.52558        -0.466188     -0.211256     -0.000000
     22.02682    -19.20356      8.52558        -0.210280      0.468710      0.000000
     22.02682      2.03145      8.52558        -0.211256      0.466188      0.000000
     20.44319     19.20356      8.52558         0.210280     -0.468710     -0.000000
     20.44319     -2.03145      8.52558         0.211256     -0.466188     -0.000000
      3.68628      1.44037      8.52558         0.167734     -0.054046      0.000000
     24.92129      1.44037      8.52558         0.167274     -0.055478      0.000000
     38.78373     -1.44037      8.52558        -0.167734      0.054046     -0.000000
     17.54872     -1.44037      8.52558        -0.167274      0.055478     -0.000000
     19.79463      3.68628      8.52558         0.054046      0.167734      0.000000
     19.79463    -17.54872      8.52558         0.055478      0.167274      0.000000
     22.67538     -3.68628      8.52558        -0.054046     -0.167734     -0.000000
     22.67538     17.54872      8.52558        -0.055478     -0.167274     -0.000000
     25.13586     -2.07137      8.52558         0.832002     -0.293182      0.000000
      3.90086     -2.07137      8.52558         0.831696     -0.293111      0.000000
     17.33415      2.07137      8.52558        -0.832002      0.293182     -0.000000
     38.56915      2.07137      8.52558        -0.831696      0.293111     -0.000000
     23.30637    -17.33415      8.52558         0.293182      0.832002      0.000000
     23.30637      3.90086      8.52558         0.293111      0.831696      0.000000
     19.16364     17.33415      8.52558        -0.293182     -0.832002     -0.000000
     19.16364     -3.90086      8.52558        -0.293111     -0.831696     -0.000000
     11.34807      1.59030      8.52558        -0.097465      0.008854     -0.000000
     32.58307      1.59030      8.52558        -0.101325      0.007730     -0.000000
     31.12194     -1.59030      8.52558         0.097465     -0.008854      0.000000
      9.88694     -1.59030      8.52558         0.101325     -0.007730      0.000000
     19.64471     11.34807      8.52558        -0.008854     -0.097465     -0.000000
     19.64471     -9.88694      8.52558        -0.007730     -0.101325     -0.000000
     22.82530    -11.34807      8.52558         0.008854      0.097465      0.000000
     22.82530      9.88694      8.52558         0.007730      0.101325      0.000000
 -----------------------------------------------------------------------------------
    total drift:                                0.000000      0.000000     -0.000000


--------------------------------------------------------------------------------------------------------



  FREE ENERGIE OF THE ION-ELECTRON SYSTEM (eV)
  ---------------------------------------------------
  free  energy   TOTEN  =     -1085.96829153 eV

  energy  without entropy=    -1086.01081589  energy(sigma->0) =    -1085.98246632
 


--------------------------------------------------------------------------------------------------------


    POTLOK:  cpu time      1.0430: real time      1.0458


--------------------------------------------------------------------------------------------------------


     LOOP+:  cpu time  11897.1227: real time  11901.0026
    4ORBIT:  cpu time      0.0000: real time      0.0000



 total charge

# of ion       s       p       d       tot
------------------------------------------
    1        0.156   6.093   3.942  10.192
    2        0.156   6.093   3.942  10.192
    3        0.621   0.086   0.000   0.707
    4        0.621   0.086   0.000   0.707
    5        0.621   0.086   0.000   0.707
    6        0.621   0.086   0.000   0.707
    7        0.621   0.086   0.000   0.707
    8        0.621   0.086   0.000   0.707
    9        0.621   0.086   0.000   0.707
   10        0.621   0.086   0.000   0.707
   11        0.633   0.050   0.000   0.684
   12        0.633   0.050   0.000   0.684
   13        0.633   0.050   0.000   0.684
   14        0.633   0.050   0.000   0.684
   15        0.633   0.050   0.000   0.684
   16        0.633   0.050   0.000   0.684
   17        0.633   0.050   0.000   0.684
   18        0.633   0.050   0.000   0.684
   19        0.645   0.046   0.000   0.691
   20        0.645   0.046   0.000   0.691
   21        0.645   0.046   0.000   0.691
   22        0.645   0.046   0.000   0.691
   23        0.645   0.046   0.000   0.691
   24        0.645   0.046   0.000   0.691
   25        0.645   0.046   0.000   0.691
   26        0.645   0.046   0.000   0.691
   27        0.641   0.048   0.000   0.689
   28        0.641   0.048   0.000   0.689
   29        0.641   0.048   0.000   0.689
   30        0.641   0.048   0.000   0.689
   31        0.641   0.048   0.000   0.689
   32        0.641   0.048   0.000   0.689
   33        0.641   0.048   0.000   0.689
   34        0.641   0.048   0.000   0.689
   35        0.637   0.051   0.000   0.688
   36        0.637   0.051   0.000   0.688
   37        0.637   0.051   0.000   0.688
   38        0.637   0.051   0.000   0.688
   39        0.637   0.051   0.000   0.688
   40        0.637   0.051   0.000   0.688
   41        0.637   0.051   0.000   0.688
   42        0.637   0.051   0.000   0.688
   43        0.866   1.695   0.000   2.561
   44        0.866   1.695   0.000   2.561
   45        0.866   1.695   0.000   2.561
   46        0.866   1.695   0.000   2.561
   47        0.866   1.695   0.000   2.561
   48        0.866   1.695   0.000   2.561
   49        0.866   1.695   0.000   2.561
   50        0.866   1.695   0.000   2.561
   51        0.872   1.731   0.000   2.603
   52        0.872   1.731   0.000   2.603
   53        0.872   1.731   0.000   2.603
   54        0.872   1.731   0.000   2.603
   55        0.872   1.731   0.000   2.603
   56        0.872   1.731   0.000   2.603
   57        0.872   1.731   0.000   2.603
   58        0.872   1.731   0.000   2.603
   59        0.857   1.763   0.000   2.620
   60        0.857   1.763   0.000   2.620
   61        0.857   1.763   0.000   2.620
   62        0.857   1.763   0.000   2.620
   63        0.857   1.763   0.000   2.620
   64        0.857   1.763   0.000   2.620
   65        0.857   1.763   0.000   2.620
   66        0.857   1.763   0.000   2.620
   67        0.872   1.772   0.000   2.644
   68        0.872   1.772   0.000   2.644
   69        0.872   1.772   0.000   2.644
   70        0.872   1.772   0.000   2.644
   71        0.872   1.772   0.000   2.644
   72        0.872   1.772   0.000   2.644
   73        0.872   1.772   0.000   2.644
   74        0.872   1.772   0.000   2.644
   75        0.871   1.775   0.000   2.646
   76        0.871   1.775   0.000   2.646
   77        0.871   1.775   0.000   2.646
   78        0.871   1.775   0.000   2.646
   79        0.871   1.775   0.000   2.646
   80        0.871   1.775   0.000   2.646
   81        0.871   1.775   0.000   2.646
   82        0.871   1.775   0.000   2.646
   83        0.872   1.771   0.000   2.642
   84        0.872   1.771   0.000   2.642
   85        0.872   1.771   0.000   2.642
   86        0.872   1.771   0.000   2.642
   87        0.872   1.771   0.000   2.642
   88        0.872   1.771   0.000   2.642
   89        0.872   1.771   0.000   2.642
   90        0.872   1.771   0.000   2.642
   91        0.862   1.766   0.000   2.628
   92        0.862   1.766   0.000   2.628
   93        0.862   1.766   0.000   2.628
   94        0.862   1.766   0.000   2.628
   95        0.862   1.766   0.000   2.628
   96        0.862   1.766   0.000   2.628
   97        0.862   1.766   0.000   2.628
   98        0.862   1.766   0.000   2.628
   99        0.871   1.774   0.000   2.645
  100        0.871   1.774   0.000   2.645
  101        0.871   1.774   0.000   2.645
  102        0.871   1.774   0.000   2.645
  103        0.871   1.774   0.000   2.645
  104        0.871   1.774   0.000   2.645
  105        0.871   1.774   0.000   2.645
  106        0.871   1.774   0.000   2.645
  107        0.880   1.672   0.000   2.552
  108        0.880   1.672   0.000   2.552
  109        0.880   1.672   0.000   2.552
  110        0.880   1.672   0.000   2.552
  111        0.880   1.672   0.000   2.552
  112        0.880   1.672   0.000   2.552
  113        0.880   1.672   0.000   2.552
  114        0.880   1.672   0.000   2.552
  115        1.217   2.792   0.000   4.009
  116        1.217   2.792   0.000   4.009
  117        1.217   2.792   0.000   4.009
  118        1.217   2.792   0.000   4.009
  119        1.217   2.792   0.000   4.009
  120        1.217   2.792   0.000   4.009
  121        1.217   2.792   0.000   4.009
  122        1.217   2.792   0.000   4.009
  123        1.559   3.520   0.000   5.079
  124        1.559   3.520   0.000   5.079
  125        1.559   3.520   0.000   5.079
  126        1.559   3.520   0.000   5.079
  127        1.559   3.520   0.000   5.079
  128        1.559   3.520   0.000   5.079
  129        1.559   3.520   0.000   5.079
  130        1.559   3.520   0.000   5.079
  131        1.600   3.497   0.000   5.097
  132        1.600   3.498   0.000   5.097
  133        1.600   3.497   0.000   5.097
  134        1.600   3.498   0.000   5.097
  135        1.600   3.497   0.000   5.097
  136        1.600   3.498   0.000   5.097
  137        1.600   3.497   0.000   5.097
  138        1.600   3.498   0.000   5.097
  139        1.595   3.525   0.000   5.120
  140        1.595   3.525   0.000   5.120
  141        1.595   3.525   0.000   5.120
  142        1.595   3.525   0.000   5.120
  143        1.595   3.525   0.000   5.120
  144        1.595   3.525   0.000   5.120
  145        1.595   3.525   0.000   5.120
  146        1.595   3.525   0.000   5.120
  147        1.595   3.516   0.000   5.111
  148        1.595   3.515   0.000   5.111
  149        1.595   3.516   0.000   5.111
  150        1.595   3.515   0.000   5.111
  151        1.595   3.516   0.000   5.111
  152        1.595   3.515   0.000   5.111
  153        1.595   3.516   0.000   5.111
  154        1.595   3.515   0.000   5.111
--------------------------------------------------
tot        148.842 274.985   7.885 431.712



 magnetization (x)

# of ion       s       p       d       tot
------------------------------------------
    1        0.060   0.013   3.592   3.666
    2       -0.060  -0.013  -3.592  -3.666
    3       -0.000   0.000   0.000   0.000
    4        0.000  -0.000   0.000  -0.000
    5       -0.000   0.000   0.000   0.000
    6        0.000  -0.000   0.000  -0.000
    7        0.000  -0.000   0.000  -0.000
    8       -0.000   0.000   0.000   0.000
    9        0.000  -0.000   0.000  -0.000
   10       -0.000   0.000   0.000   0.000
   11       -0.002  -0.001   0.000  -0.002
   12        0.002   0.001   0.000   0.002
   13       -0.002  -0.001   0.000  -0.002
   14        0.002   0.001   0.000   0.002
   15        0.002   0.001   0.000   0.002
   16       -0.002  -0.001   0.000  -0.002
   17        0.002   0.001   0.000   0.002
   18       -0.002  -0.001   0.000  -0.002
   19        0.000  -0.000   0.000   0.000
   20        0.001   0.000   0.000   0.001
   21        0.000  -0.000   0.000   0.000
   22        0.001   0.000   0.000   0.001
   23       -0.000   0.000   0.000  -0.000
   24       -0.001  -0.000   0.000  -0.001
   25       -0.000   0.000   0.000  -0.000
   26       -0.001  -0.000   0.000  -0.001
   27       -0.000   0.000   0.000  -0.000
   28        0.000   0.000   0.000   0.000
   29       -0.000   0.000   0.000  -0.000
   30        0.000   0.000   0.000   0.000
   31        0.000  -0.000   0.000   0.000
   32       -0.000  -0.000   0.000  -0.000
   33        0.000  -0.000   0.000   0.000
   34       -0.000  -0.000   0.000  -0.000
   35        0.001   0.000   0.000   0.001
   36        0.001   0.000   0.000   0.001
   37        0.001   0.000   0.000   0.001
   38        0.001   0.000   0.000   0.001
   39       -0.001  -0.000   0.000  -0.001
   40       -0.001  -0.000   0.000  -0.001
   41       -0.001  -0.000   0.000  -0.001
   42       -0.001  -0.000   0.000  -0.001
   43       -0.000   0.005   0.000   0.005
   44        0.000  -0.005   0.000  -0.005
   45       -0.000   0.005   0.000   0.005
   46        0.000  -0.005   0.000  -0.005
   47        0.000  -0.005   0.000  -0.005
   48       -0.000   0.005   0.000   0.005
   49        0.000  -0.005   0.000  -0.005
   50       -0.000   0.005   0.000   0.005
   51       -0.003  -0.011   0.000  -0.014
   52        0.003   0.011   0.000   0.014
   53       -0.003  -0.011   0.000  -0.014
   54        0.003   0.011   0.000   0.014
   55        0.003   0.011   0.000   0.014
   56       -0.003  -0.011   0.000  -0.014
   57        0.003   0.011   0.000   0.014
   58       -0.003  -0.011   0.000  -0.014
   59        0.000   0.000   0.000   0.000
   60        0.000   0.003   0.000   0.003
   61        0.000   0.000   0.000   0.000
   62        0.000   0.003   0.000   0.003
   63       -0.000  -0.000   0.000  -0.000
   64       -0.000  -0.003   0.000  -0.003
   65       -0.000  -0.000   0.000  -0.000
   66       -0.000  -0.003   0.000  -0.003
   67       -0.000  -0.004   0.000  -0.004
   68        0.000   0.003   0.000   0.003
   69       -0.000  -0.004   0.000  -0.004
   70        0.000   0.003   0.000   0.003
   71        0.000   0.004   0.000   0.004
   72       -0.000  -0.003   0.000  -0.003
   73        0.000   0.004   0.000   0.004
   74       -0.000  -0.003   0.000  -0.003
   75       -0.000  -0.001   0.000  -0.001
   76        0.000   0.001   0.000   0.001
   77       -0.000  -0.001   0.000  -0.001
   78        0.000   0.001   0.000   0.001
   79        0.000   0.001   0.000   0.001
   80       -0.000  -0.001   0.000  -0.001
   81        0.000   0.001   0.000   0.001
   82       -0.000  -0.001   0.000  -0.001
   83       -0.000   0.001   0.000   0.001
   84       -0.000  -0.000   0.000  -0.000
   85       -0.000   0.001   0.000   0.001
   86       -0.000  -0.000   0.000  -0.000
   87        0.000  -0.001   0.000  -0.001
   88        0.000   0.000   0.000   0.000
   89        0.000  -0.001   0.000  -0.001
   90        0.000   0.000   0.000   0.000
   91        0.001   0.006   0.000   0.007
   92        0.001   0.008   0.000   0.009
   93        0.001   0.006   0.000   0.007
   94        0.001   0.008   0.000   0.009
   95       -0.001  -0.006   0.000  -0.007
   96       -0.001  -0.008   0.000  -0.009
   97       -0.001  -0.006   0.000  -0.007
   98       -0.001  -0.008   0.000  -0.009
   99        0.000  -0.000   0.000  -0.000
  100        0.000   0.003   0.000   0.003
  101        0.000  -0.000   0.000  -0.000
  102        0.000   0.003   0.000   0.003
  103       -0.000   0.000   0.000   0.000
  104       -0.000  -0.003   0.000  -0.003
  105       -0.000   0.000   0.000   0.000
  106       -0.000  -0.003   0.000  -0.003
  107        0.000   0.004   0.000   0.004
  108        0.000   0.004   0.000   0.004
  109        0.000   0.004   0.000   0.004
  110        0.000   0.004   0.000   0.004
  111       -0.000  -0.004   0.000  -0.004
  112       -0.000  -0.004   0.000  -0.004
  113       -0.000  -0.004   0.000  -0.004
  114       -0.000  -0.004   0.000  -0.004
  115       -0.002  -0.015   0.000  -0.017
  116        0.002   0.015   0.000   0.017
  117        0.002   0.015   0.000   0.017
  118       -0.002  -0.015   0.000  -0.017
  119       -0.002  -0.015   0.000  -0.017
  120        0.002   0.015   0.000   0.017
  121        0.002   0.015   0.000   0.017
  122       -0.002  -0.015   0.000  -0.017
  123        0.003   0.087   0.000   0.089
  124       -0.003  -0.086   0.000  -0.089
  125        0.003   0.087   0.000   0.089
  126       -0.003  -0.086   0.000  -0.089
  127       -0.003  -0.087   0.000  -0.089
  128        0.003   0.086   0.000   0.089
  129       -0.003  -0.087   0.000  -0.089
  130        0.003   0.086   0.000   0.089
  131       -0.002  -0.147   0.000  -0.150
  132        0.002   0.149   0.000   0.151
  133       -0.002  -0.147   0.000  -0.150
  134        0.002   0.149   0.000   0.151
  135        0.002   0.147   0.000   0.150
  136       -0.002  -0.149   0.000  -0.151
  137        0.002   0.147   0.000   0.150
  138       -0.002  -0.149   0.000  -0.151
  139        0.001   0.104   0.000   0.105
  140       -0.001  -0.102   0.000  -0.104
  141        0.001   0.104   0.000   0.105
  142       -0.001  -0.102   0.000  -0.104
  143       -0.001  -0.104   0.000  -0.105
  144        0.001   0.102   0.000   0.104
  145       -0.001  -0.104   0.000  -0.105
  146        0.001   0.102   0.000   0.104
  147        0.001   0.049   0.000   0.050
  148        0.001   0.050   0.000   0.051
  149        0.001   0.049   0.000   0.050
  150        0.001   0.050   0.000   0.051
  151       -0.001  -0.049   0.000  -0.050
  152       -0.001  -0.050   0.000  -0.051
  153       -0.001  -0.049   0.000  -0.050
  154       -0.001  -0.050   0.000  -0.051
--------------------------------------------------
tot          0.000   0.000   0.000   0.000
 

 total amount of memory used by VASP MPI-rank0  4256028. kBytes
=======================================================================

   base      :      30000. kBytes
   nonlr-proj:       5075. kBytes
   fftplans  :      38157. kBytes
   grid      :     101154. kBytes
   one-center:        404. kBytes
   wavefun   :    4081238. kBytes
 
  
  
 General timing and accounting informations for this job:
 ========================================================
  
                  Total CPU time used (sec):    12592.123
                            User time (sec):    11778.044
                          System time (sec):      814.080
                         Elapsed time (sec):    12621.747
  
                   Maximum memory used (kb):     4674344.
                   Average memory used (kb):          N/A
  
                          Minor page faults:      4292423
                          Major page faults:           29
                 Voluntary context switches:       146177
