 vasp.6.3.2 27Jun22 (build Aug 02 2025 14:55:03) complex                        
  
 executed on             LinuxIFC date 2025.11.08  18:19:29
 running on   64 total cores
 distrk:  each k-point on   64 cores,    1 groups
 distr:  one band on NCORE=  16 cores,    4 groups


--------------------------------------------------------------------------------------------------------


 INCAR:
   PREC = Normal
   ENCUT = 500
   IBRION = -1
   ISPIN = 2
   MAGMOM = 5 -5 4*1 4*-1 4*1 4*-1 4*1 4*-1 4*1 4*-1 4*1 4*-1 4*1 4*-1 4*1 4*-1 4*1 4*-1 4*1 4*-1 4*1 4*-1 4*1 4*-1 4*1 4*-1 4*1 4*-1 4*1 4*-1 4*1 4*-1 4*1 4*-1 4*1 4*-1 4*1 4*-1 4*1 4*-1 4*1 4*-1 4*1 4*-1 4*1 4*-1 4*1 4*-1 4*1 4*-1 4*1 4*-1 4*1 4*-1 4*1 4*-1 4*1 4*-1 4*1 4*-1 4*1 4*-1 4*1 4*-1 4*1 4*-1 4*1 4*-1 4*1 4*-1 4*1 4*-1 4*1 4*-1 4*1 4*-1 4*1 4*-1 4*1 4*-1
   NSW = 0
   NELM = 200
   ISIF = 2
   EDIFF = 1E-5
   EDIFFG = -0.01
   ALGO = Fast
   ISTART = 1
   ICHARG = 11
   LREAL = Auto
   LWAVE = .F.
   LCHARG = .F.
   LVTOT = .T.
   NPAR = 4
   AMIX = 0.2
   BMIX = 0.0001
   AMIX_MAG = 0.8
   BMIX_MAG = 0.0001
   LDAU = .TRUE.
   LDAUTYPE = 2
   LDAUL = 2 -1 -1 -1 -1 -1
   LDAUU = 3.0 0 0 0 0 0
   LDAUJ = 1.0 0 0 0 0 0
   LMAXMIX = 4
   LORBIT = 11

 POTCAR:    PAW_PBE Cr_pv 02Aug2007               
 POTCAR:    PAW_PBE H 15Jun2001                   
 POTCAR:    PAW_PBE C 08Apr2002                   
 POTCAR:    PAW_PBE S 06Sep2000                   
 POTCAR:    PAW_PBE O 08Apr2002                   
 WARNING: For LVTOT=.TRUE., VASP.5.x writes the TOTAL local potential to the
     file LOCPOT. If you want only the Hartree contributions, use LVHAR=.TRUE.
     instead. 

 POTCAR:    PAW_PBE Cr_pv 02Aug2007               
   SHA256 =  c9a7df34d3cdbacf1090e328ef39c0b420964e11c23f63548d1ac9dd218cdba0 Cr_pv/POTCAR          
   COPYR  = (c) Copyright 02Aug2007 Georg Kresse                                                    
   COPYR  = This file is part of the software VASP. Any use, copying, and all other rights are regul
   COPYR  = If you do not have a valid VASP license, you may not use, copy or distribute this file. 
   VRHFIN =Cr : p6d5s1                                                                              
   LEXCH  = PE                                                                                      
   EATOM  =  1647.9177 eV,  121.1185 Ry                                                             
                                                                                                    
   TITEL  = PAW_PBE Cr_pv 02Aug2007                                                                 
   LULTRA =        F    use ultrasoft PP ?                                                          
   IUNSCR =        1    unscreen: 0-lin 1-nonlin 2-no                                               
   RPACOR =    2.080    partial core radius                                                         
   POMASS =   51.996; ZVAL   =   12.000    mass and valenz                                          
   RCORE  =    2.300    outmost cutoff radius                                                       
   RWIGS  =    2.500; RWIGS  =    1.323    wigner-seitz radius (au A)                               
   ENMAX  =  265.681; ENMIN  =  199.261 eV                                                          
   ICORE  =        3    local potential                                                             
   LCOR   =        T    correct aug charges                                                         
   LPAW   =        T    paw PP                                                                      
   EAUG   =  519.424                                                                                
   DEXC   =    0.000                                                                                
   RMAX   =    2.356    core radius for proj-oper                                                   
   RAUG   =    1.300    factor for augmentation sphere                                              
   RDEP   =    2.447    radius for radial grids                                                     
   RDEPT  =    1.882    core radius for aug-charge                                                  
                                                                                                    
   Atomic configuration                                                                             
    8 entries                                                                                       
     n  l   j            E        occ.                                                              
     1  0  0.50     -5880.4963   2.0000                                                             
     2  0  0.50      -667.0865   2.0000                                                             
     2  1  1.50      -560.6250   6.0000                                                             
     3  0  0.50       -73.9860   2.0000                                                             
     3  1  1.50       -45.4378   6.0000                                                             
     3  2  2.50        -2.9137   5.0000                                                             
     4  0  0.50        -4.0071   1.0000                                                             
     4  3  2.50        -1.3606   0.0000                                                             
   Description                                                                                      
     l       E           TYP  RCUT    TYP  RCUT                                                     
     1    -45.4377911     23  2.000                                                                 
     1      1.3605826     23  2.000                                                                 
     2     -2.9136672     23  2.300                                                                 
     2     -4.2742498     23  2.300                                                                 
     0     -4.0071320     23  2.300                                                                 
     0      9.4498803     23  2.300                                                                 
     3      2.7211652     23  2.300                                                                 
  local pseudopotential read in
  partial core-charges read in
  partial kinetic energy density read in
  atomic valenz-charges read in
  non local Contribution for L=           1  read in
    real space projection operators read in
  non local Contribution for L=           1  read in
    real space projection operators read in
  non local Contribution for L=           2  read in
    real space projection operators read in
  non local Contribution for L=           2  read in
    real space projection operators read in
  non local Contribution for L=           0  read in
    real space projection operators read in
  non local Contribution for L=           0  read in
    real space projection operators read in
    PAW grid and wavefunctions read in
 
   number of l-projection  operators is LMAX  =           6
   number of lm-projection operators is LMMAX =          18
 
 POTCAR:    PAW_PBE H 15Jun2001                   
   SHA256 =  030f79b5d3ab3cf0e668861823c8fb652ff669f3e15e46930bd03bfd63a607b6 H/POTCAR              
   COPYR  = (c) Copyright 15Jun2001 Georg Kresse                                                    
   COPYR  = This file is part of the software VASP. Any use, copying, and all other rights are regul
   COPYR  = If you do not have a valid VASP license, you may not use, copy or distribute this file. 
   VRHFIN =H: ultrasoft test                                                                        
   LEXCH  = PE                                                                                      
   EATOM  =    12.4884 eV,    0.9179 Ry                                                             
                                                                                                    
   TITEL  = PAW_PBE H 15Jun2001                                                                     
   LULTRA =        F    use ultrasoft PP ?                                                          
   IUNSCR =        0    unscreen: 0-lin 1-nonlin 2-no                                               
   RPACOR =    0.000    partial core radius                                                         
   POMASS =    1.000; ZVAL   =    1.000    mass and valenz                                          
   RCORE  =    1.100    outmost cutoff radius                                                       
   RWIGS  =    0.700; RWIGS  =    0.370    wigner-seitz radius (au A)                               
   ENMAX  =  250.000; ENMIN  =  200.000 eV                                                          
   RCLOC  =    0.701    cutoff for local pot                                                        
   LCOR   =        T    correct aug charges                                                         
   LPAW   =        T    paw PP                                                                      
   EAUG   =  400.000                                                                                
   RMAX   =    1.123    core radius for proj-oper                                                   
   RAUG   =    1.200    factor for augmentation sphere                                              
   RDEP   =    1.112    radius for radial grids                                                     
   RDEPT  =    0.926    core radius for aug-charge                                                  
                                                                                                    
   Atomic configuration                                                                             
    2 entries                                                                                       
     n  l   j            E        occ.                                                              
     1  0  0.50        -6.4927   1.0000                                                             
     2  1  0.50        -3.4015   0.0000                                                             
   Description                                                                                      
     l       E           TYP  RCUT    TYP  RCUT                                                     
     0     -6.4927494     23  1.100                                                                 
     0      6.8029130     23  1.100                                                                 
     1     -4.0817478     23  1.100                                                                 
  local pseudopotential read in
  atomic valenz-charges read in
  non local Contribution for L=           0  read in
    real space projection operators read in
  non local Contribution for L=           0  read in
    real space projection operators read in
  non local Contribution for L=           1  read in
    real space projection operators read in
    PAW grid and wavefunctions read in
 
   number of l-projection  operators is LMAX  =           3
   number of lm-projection operators is LMMAX =           5
 
 POTCAR:    PAW_PBE C 08Apr2002                   
   SHA256 =  253f7b50bb8d59471dbedb8285d89021f4a42ed1a2c5d38a03a736e69125dd95 C/POTCAR              
   COPYR  = (c) Copyright 08Apr2002 Georg Kresse                                                    
   COPYR  = This file is part of the software VASP. Any use, copying, and all other rights are regul
   COPYR  = If you do not have a valid VASP license, you may not use, copy or distribute this file. 
   VRHFIN =C: s2p2                                                                                  
   LEXCH  = PE                                                                                      
   EATOM  =   147.1560 eV,   10.8157 Ry                                                             
                                                                                                    
   TITEL  = PAW_PBE C 08Apr2002                                                                     
   LULTRA =        F    use ultrasoft PP ?                                                          
   IUNSCR =        1    unscreen: 0-lin 1-nonlin 2-no                                               
   RPACOR =    1.200    partial core radius                                                         
   POMASS =   12.011; ZVAL   =    4.000    mass and valenz                                          
   RCORE  =    1.500    outmost cutoff radius                                                       
   RWIGS  =    1.630; RWIGS  =    0.863    wigner-seitz radius (au A)                               
   ENMAX  =  400.000; ENMIN  =  300.000 eV                                                          
   ICORE  =        2    local potential                                                             
   LCOR   =        T    correct aug charges                                                         
   LPAW   =        T    paw PP                                                                      
   EAUG   =  644.873                                                                                
   DEXC   =    0.000                                                                                
   RMAX   =    1.529    core radius for proj-oper                                                   
   RAUG   =    1.300    factor for augmentation sphere                                              
   RDEP   =    1.501    radius for radial grids                                                     
   RDEPT  =    1.300    core radius for aug-charge                                                  
                                                                                                    
   Atomic configuration                                                                             
    4 entries                                                                                       
     n  l   j            E        occ.                                                              
     1  0  0.50      -273.3789   2.0000                                                             
     2  0  0.50       -13.7508   2.0000                                                             
     2  1  0.50        -5.2854   2.0000                                                             
     3  2  1.50        -5.4423   0.0000                                                             
   Description                                                                                      
     l       E           TYP  RCUT    TYP  RCUT                                                     
     0    -13.7508458     23  1.200                                                                 
     0     -8.2022199     23  1.200                                                                 
     1     -5.2854383     23  1.500                                                                 
     1     34.0145650     23  1.500                                                                 
     2     -5.4423304      7  1.500                                                                 
  local pseudopotential read in
  partial core-charges read in
  partial kinetic energy density read in
  atomic valenz-charges read in
  non local Contribution for L=           0  read in
    real space projection operators read in
  non local Contribution for L=           0  read in
    real space projection operators read in
  non local Contribution for L=           1  read in
    real space projection operators read in
  non local Contribution for L=           1  read in
    real space projection operators read in
    PAW grid and wavefunctions read in
 
   number of l-projection  operators is LMAX  =           4
   number of lm-projection operators is LMMAX =           8
 
 POTCAR:    PAW_PBE S 06Sep2000                   
   SHA256 =  0fc7481fb0695f01bdc6462160264c5c84044ae9ec85a907d398b887a2bc3132 S/POTCAR              
   COPYR  = (c) Copyright 06Sep2000 Georg Kresse                                                    
   COPYR  = This file is part of the software VASP. Any use, copying, and all other rights are regul
   COPYR  = If you do not have a valid VASP license, you may not use, copy or distribute this file. 
   VRHFIN =S : s2p4                                                                                 
   LEXCH  = PE                                                                                      
   EATOM  =   276.8230 eV,   20.3459 Ry                                                             
                                                                                                    
   TITEL  = PAW_PBE S 06Sep2000                                                                     
   LULTRA =        F    use ultrasoft PP ?                                                          
   IUNSCR =        1    unscreen: 0-lin 1-nonlin 2-no                                               
   RPACOR =    1.500    partial core radius                                                         
   POMASS =   32.066; ZVAL   =    6.000    mass and valenz                                          
   RCORE  =    1.900    outmost cutoff radius                                                       
   RWIGS  =    2.200; RWIGS  =    1.164    wigner-seitz radius (au A)                               
   ENMAX  =  258.689; ENMIN  =  194.016 eV                                                          
   ICORE  =        2    local potential                                                             
   LCOR   =        T    correct aug charges                                                         
   LPAW   =        T    paw PP                                                                      
   EAUG   =  335.092                                                                                
   DEXC   =    0.000                                                                                
   RMAX   =    1.942    core radius for proj-oper                                                   
   RAUG   =    1.300    factor for augmentation sphere                                              
   RDEP   =    1.954    radius for radial grids                                                     
   RDEPT  =    1.744    core radius for aug-charge                                                  
                                                                                                    
   Atomic configuration                                                                             
    6 entries                                                                                       
     n  l   j            E        occ.                                                              
     1  0  0.50     -2405.8406   2.0000                                                             
     2  0  0.50      -211.7007   2.0000                                                             
     2  1  1.50      -156.4958   6.0000                                                             
     3  0  0.50       -17.2562   2.0000                                                             
     3  1  0.50        -7.0085   4.0000                                                             
     3  2  1.50        -6.8029   0.0000                                                             
   Description                                                                                      
     l       E           TYP  RCUT    TYP  RCUT                                                     
     0    -17.2561641     23  1.900                                                                 
     0    -15.8743224     23  1.900                                                                 
     1     -7.0085400     23  1.900                                                                 
     1     -2.7779785     23  1.900                                                                 
     2     -6.8029130     23  1.900                                                                 
  local pseudopotential read in
  partial core-charges read in
  partial kinetic energy density read in
  atomic valenz-charges read in
  non local Contribution for L=           0  read in
    real space projection operators read in
  non local Contribution for L=           0  read in
    real space projection operators read in
  non local Contribution for L=           1  read in
    real space projection operators read in
  non local Contribution for L=           1  read in
    real space projection operators read in
    PAW grid and wavefunctions read in
 
   number of l-projection  operators is LMAX  =           4
   number of lm-projection operators is LMMAX =           8
 
 POTCAR:    PAW_PBE O 08Apr2002                   
   SHA256 =  818f92134a0a090dccd8ba1447fa70422a3b330e708bb4f08108d8ae51209ddf O/POTCAR              
   COPYR  = (c) Copyright 08Apr2002 Georg Kresse                                                    
   COPYR  = This file is part of the software VASP. Any use, copying, and all other rights are regul
   COPYR  = If you do not have a valid VASP license, you may not use, copy or distribute this file. 
   VRHFIN =O: s2p4                                                                                  
   LEXCH  = PE                                                                                      
   EATOM  =   432.3788 eV,   31.7789 Ry                                                             
                                                                                                    
   TITEL  = PAW_PBE O 08Apr2002                                                                     
   LULTRA =        F    use ultrasoft PP ?                                                          
   IUNSCR =        1    unscreen: 0-lin 1-nonlin 2-no                                               
   RPACOR =    1.200    partial core radius                                                         
   POMASS =   16.000; ZVAL   =    6.000    mass and valenz                                          
   RCORE  =    1.520    outmost cutoff radius                                                       
   RWIGS  =    1.550; RWIGS  =    0.820    wigner-seitz radius (au A)                               
   ENMAX  =  400.000; ENMIN  =  300.000 eV                                                          
   ICORE  =        2    local potential                                                             
   LCOR   =        T    correct aug charges                                                         
   LPAW   =        T    paw PP                                                                      
   EAUG   =  605.392                                                                                
   DEXC   =    0.000                                                                                
   RMAX   =    1.553    core radius for proj-oper                                                   
   RAUG   =    1.300    factor for augmentation sphere                                              
   RDEP   =    1.550    radius for radial grids                                                     
   RDEPT  =    1.329    core radius for aug-charge                                                  
                                                                                                    
   Atomic configuration                                                                             
    4 entries                                                                                       
     n  l   j            E        occ.                                                              
     1  0  0.50      -514.6923   2.0000                                                             
     2  0  0.50       -23.9615   2.0000                                                             
     2  1  0.50        -9.0305   4.0000                                                             
     3  2  1.50        -9.5241   0.0000                                                             
   Description                                                                                      
     l       E           TYP  RCUT    TYP  RCUT                                                     
     0    -23.9615318     23  1.200                                                                 
     0     -9.5240782     23  1.200                                                                 
     1     -9.0304911     23  1.520                                                                 
     1      8.1634956     23  1.520                                                                 
     2     -9.5240782      7  1.500                                                                 
  local pseudopotential read in
  partial core-charges read in
  partial kinetic energy density read in
  kinetic energy density of atom read in
  atomic valenz-charges read in
  non local Contribution for L=           0  read in
    real space projection operators read in
  non local Contribution for L=           0  read in
    real space projection operators read in
  non local Contribution for L=           1  read in
    real space projection operators read in
  non local Contribution for L=           1  read in
    real space projection operators read in
    PAW grid and wavefunctions read in
 
   number of l-projection  operators is LMAX  =           4
   number of lm-projection operators is LMMAX =           8
 
 Optimization of the real space projectors (new method)

 maximal supplied QI-value         = 16.25
 optimisation between [QCUT,QGAM] = [ 11.38, 22.75] = [ 36.24,144.96] Ry 
 Optimized for a Real-space Cutoff    1.31 Angstroem

   l    n(q)    QCUT    max X(q) W(low)/X(q) W(high)/X(q)  e(spline) 
   1      8    11.376     3.262    0.15E-03    0.36E-03    0.86E-07
   1      8    11.376     5.741    0.39E-03    0.84E-03    0.21E-06
   2      8    11.376    60.438    0.39E-03    0.55E-03    0.20E-06
   2      8    11.376    55.380    0.40E-03    0.57E-03    0.20E-06
   0      9    11.376    80.273    0.17E-03    0.16E-03    0.48E-07
   0      9    11.376    36.654    0.15E-03    0.14E-03    0.43E-07
 Optimization of the real space projectors (new method)

 maximal supplied QI-value         = 34.20
 optimisation between [QCUT,QGAM] = [ 11.29, 22.57] = [ 35.68,142.71] Ry 
 Optimized for a Real-space Cutoff    1.16 Angstroem

   l    n(q)    QCUT    max X(q) W(low)/X(q) W(high)/X(q)  e(spline) 
   0      8    11.287    19.460    0.40E-03    0.73E-03    0.16E-06
   0      8    11.287    12.209    0.38E-03    0.70E-03    0.15E-06
   1      7    11.287     4.655    0.22E-03    0.25E-04    0.22E-06
 Optimization of the real space projectors (new method)

 maximal supplied QI-value         = 25.13
 optimisation between [QCUT,QGAM] = [ 11.31, 22.87] = [ 35.82,146.48] Ry 
 Optimized for a Real-space Cutoff    1.00 Angstroem

   l    n(q)    QCUT    max X(q) W(low)/X(q) W(high)/X(q)  e(spline) 
   0      7    11.310   115.676    0.43E-03    0.13E-02    0.19E-06
   0      7    11.310    87.132    0.43E-03    0.13E-02    0.18E-06
   1      6    11.310     4.429    0.42E-03    0.74E-03    0.11E-06
   1      6    11.310     2.733    0.34E-03    0.55E-03    0.92E-07
 Optimization of the real space projectors (new method)

 maximal supplied QI-value         = 19.84
 optimisation between [QCUT,QGAM] = [ 11.31, 22.82] = [ 35.82,145.81] Ry 
 Optimized for a Real-space Cutoff    1.16 Angstroem

   l    n(q)    QCUT    max X(q) W(low)/X(q) W(high)/X(q)  e(spline) 
   0      8    11.310   187.594    0.35E-03    0.37E-03    0.44E-07
   0      8    11.310   164.243    0.34E-03    0.37E-03    0.44E-07
   1      7    11.310    67.533    0.33E-03    0.37E-03    0.88E-07
   1      7    11.310    50.729    0.32E-03    0.36E-03    0.86E-07
 Optimization of the real space projectors (new method)

 maximal supplied QI-value         = 24.76
 optimisation between [QCUT,QGAM] = [ 11.39, 22.77] = [ 36.31,145.25] Ry 
 Optimized for a Real-space Cutoff    1.00 Angstroem

   l    n(q)    QCUT    max X(q) W(low)/X(q) W(high)/X(q)  e(spline) 
   0      7    11.387    20.381    0.39E-03    0.13E-02    0.15E-06
   0      7    11.387    15.268    0.42E-03    0.14E-02    0.17E-06
   1      6    11.387     5.964    0.41E-03    0.11E-02    0.17E-06
   1      6    11.387     5.382    0.39E-03    0.87E-03    0.15E-06
  PAW_PBE Cr_pv 02Aug2007               :
 energy of atom  1       EATOM=-1647.9177
 kinetic energy error for atom=    0.0061 (will be added to EATOM!!)
  PAW_PBE H 15Jun2001                   :
 energy of atom  2       EATOM=  -12.4884
 kinetic energy error for atom=    0.0020 (will be added to EATOM!!)
  PAW_PBE C 08Apr2002                   :
 energy of atom  3       EATOM= -147.1560
 kinetic energy error for atom=    0.0076 (will be added to EATOM!!)
  PAW_PBE S 06Sep2000                   :
 energy of atom  4       EATOM= -276.8230
 kinetic energy error for atom=    0.0020 (will be added to EATOM!!)
  PAW_PBE O 08Apr2002                   :
 energy of atom  5       EATOM= -432.3788
 kinetic energy error for atom=    0.0224 (will be added to EATOM!!)
 
 
 POSCAR: Cr2 H32 C40 S8 O8
  positions in direct lattice
  No initial velocities read in
 exchange correlation table for  LEXCH =        8
   RHO(1)=    0.500       N(1)  =     2000
   RHO(2)=  100.500       N(2)  =     4000
 


--------------------------------------------------------------------------------------------------------


 ion  position               nearest neighbor table
   1  0.000  0.000  0.503-  83 1.80  85 1.80  88 1.80  90 1.80
   2  0.500  0.500  0.503-  84 1.80  86 1.80  87 1.80  89 1.80
   3  0.649  0.587  0.653-  35 1.10
   4  0.149  0.087  0.653-  36 1.10
   5  0.351  0.413  0.653-  37 1.10
   6  0.851  0.913  0.653-  38 1.10
   7  0.913  0.149  0.653-  39 1.10
   8  0.413  0.649  0.653-  40 1.10
   9  0.087  0.851  0.653-  41 1.10
  10  0.587  0.351  0.653-  42 1.10
  11  0.126  0.196  0.608-  36 1.10
  12  0.626  0.696  0.608-  35 1.10
  13  0.874  0.804  0.608-  38 1.10
  14  0.374  0.304  0.608-  37 1.10
  15  0.304  0.626  0.608-  40 1.10
  16  0.804  0.126  0.608-  39 1.10
  17  0.696  0.374  0.608-  42 1.10
  18  0.196  0.874  0.608-  41 1.10
  19  0.755  0.487  0.518-  59 1.08
  20  0.255  0.987  0.518-  60 1.08
  21  0.245  0.513  0.518-  61 1.08
  22  0.745  0.013  0.518-  62 1.08
  23  0.013  0.255  0.518-  63 1.08
  24  0.513  0.755  0.518-  64 1.08
  25  0.987  0.745  0.518-  65 1.08
  26  0.487  0.245  0.518-  66 1.08
  27  0.887  0.725  0.360-  67 1.09
  28  0.387  0.225  0.360-  68 1.09
  29  0.113  0.275  0.360-  69 1.09
  30  0.613  0.775  0.360-  70 1.09
  31  0.775  0.387  0.360-  71 1.09
  32  0.275  0.887  0.360-  72 1.09
  33  0.225  0.613  0.360-  73 1.09
  34  0.725  0.113  0.360-  74 1.09
  35  0.640  0.629  0.578-   3 1.10  12 1.10  84 1.42  43 1.51
  36  0.140  0.129  0.578-   4 1.10  11 1.10  83 1.42  44 1.51
  37  0.360  0.371  0.578-   5 1.10  14 1.10  86 1.42  45 1.51
  38  0.860  0.871  0.578-   6 1.10  13 1.10  85 1.42  46 1.51
  39  0.871  0.140  0.578-   7 1.10  16 1.10  88 1.42  47 1.51
  40  0.371  0.640  0.578-   8 1.10  15 1.10  87 1.42  48 1.51
  41  0.129  0.860  0.578-   9 1.10  18 1.10  90 1.42  49 1.51
  42  0.629  0.360  0.578-  10 1.10  17 1.10  89 1.42  50 1.51
  43  0.724  0.629  0.509-  59 1.38  51 1.44  35 1.51
  44  0.224  0.129  0.509-  60 1.38  52 1.44  36 1.51
  45  0.276  0.371  0.509-  61 1.38  53 1.44  37 1.51
  46  0.776  0.871  0.509-  62 1.38  54 1.44  38 1.51
  47  0.871  0.224  0.509-  63 1.38  55 1.44  39 1.51
  48  0.371  0.724  0.509-  64 1.38  56 1.44  40 1.51
  49  0.129  0.776  0.509-  65 1.38  57 1.44  41 1.51
  50  0.629  0.276  0.509-  66 1.38  58 1.44  42 1.51
  51  0.766  0.704  0.461-  67 1.38  43 1.44  54 1.47
  52  0.266  0.204  0.461-  68 1.38  44 1.44  53 1.47
  53  0.234  0.296  0.461-  69 1.38  45 1.44  52 1.47
  54  0.734  0.796  0.461-  70 1.38  46 1.44  51 1.47
  55  0.796  0.266  0.461-  71 1.38  47 1.44  58 1.47
  56  0.296  0.766  0.461-  72 1.38  48 1.44  57 1.47
  57  0.204  0.734  0.461-  73 1.38  49 1.44  56 1.47
  58  0.704  0.234  0.461-  74 1.38  50 1.44  55 1.47
  59  0.771  0.553  0.491-  19 1.08  43 1.38  75 1.70
  60  0.271  0.053  0.491-  20 1.08  44 1.38  76 1.70
  61  0.229  0.447  0.491-  21 1.08  45 1.38  77 1.70
  62  0.729  0.947  0.491-  22 1.08  46 1.38  78 1.70
  63  0.947  0.271  0.491-  23 1.08  47 1.38  79 1.70
  64  0.447  0.771  0.491-  24 1.08  48 1.38  80 1.70
  65  0.053  0.729  0.491-  25 1.08  49 1.38  81 1.70
  66  0.553  0.229  0.491-  26 1.08  50 1.38  82 1.70
  67  0.843  0.682  0.406-  27 1.09  51 1.38  75 1.71
  68  0.343  0.182  0.406-  28 1.09  52 1.38  76 1.71
  69  0.157  0.318  0.406-  29 1.09  53 1.38  77 1.71
  70  0.657  0.818  0.406-  30 1.09  54 1.38  78 1.71
  71  0.818  0.343  0.406-  31 1.09  55 1.38  79 1.71
  72  0.318  0.843  0.406-  32 1.09  56 1.38  80 1.71
  73  0.182  0.657  0.406-  33 1.09  57 1.38  81 1.71
  74  0.682  0.157  0.406-  34 1.09  58 1.38  82 1.71
  75  0.864  0.571  0.414-  59 1.70  67 1.71
  76  0.364  0.071  0.414-  60 1.70  68 1.71
  77  0.136  0.429  0.414-  61 1.70  69 1.71
  78  0.636  0.929  0.414-  62 1.70  70 1.71
  79  0.929  0.364  0.414-  63 1.70  71 1.71
  80  0.429  0.864  0.414-  64 1.70  72 1.71
  81  0.071  0.636  0.414-  65 1.70  73 1.71
  82  0.571  0.136  0.414-  66 1.70  74 1.71
  83  0.065  0.098  0.518-  36 1.42   1 1.80
  84  0.565  0.598  0.518-  35 1.42   2 1.80
  85  0.935  0.902  0.518-  38 1.42   1 1.80
  86  0.435  0.402  0.518-  37 1.42   2 1.80
  87  0.402  0.565  0.518-  40 1.42   2 1.80
  88  0.902  0.065  0.518-  39 1.42   1 1.80
  89  0.598  0.435  0.518-  42 1.42   2 1.80
  90  0.098  0.935  0.518-  41 1.42   1 1.80
 
  LATTYP: Found a simple tetragonal cell.
 ALAT       =    15.2060651398
 C/A-ratio  =     0.7807759256
  
  Lattice vectors:
  
 A1 = (  10.7523117547, -10.7523117964,   0.0000000000)
 A2 = (  10.7523117964,  10.7523117547,   0.0000000000)
 A3 = (  -0.0000000000,  -0.0000000000,  11.8725295837)


Analysis of symmetry for initial positions (statically):
=====================================================================
 Subroutine PRICEL returns following result:
 
  LATTYP: Found a simple tetragonal cell.
 ALAT       =    10.7523117755
 C/A-ratio  =     1.1041839031
  
  Lattice vectors:
  
 A1 = (  -0.0000000209, -10.7523117755,   0.0000000000)
 A2 = (  10.7523117755,  -0.0000000209,   0.0000000000)
 A3 = (   0.0000000000,   0.0000000000,  11.8725295837)
 
   2 primitive cells build up your supercell.
 

 Routine SETGRP: Setting up the symmetry group for a 
 simple tetragonal supercell.


 Subroutine GETGRP returns: Found  4 space group operations
 (whereof  4 operations were pure point group operations)
 out of a pool of 16 trial point group operations.


The static configuration has the point symmetry     .


Analysis of symmetry for dynamics (positions and initial velocities):
=====================================================================
 Subroutine PRICEL returns following result:
 
  LATTYP: Found a simple tetragonal cell.
 ALAT       =    10.7523117755
 C/A-ratio  =     1.1041839031
  
  Lattice vectors:
  
 A1 = (  -0.0000000209, -10.7523117755,   0.0000000000)
 A2 = (  10.7523117755,  -0.0000000209,   0.0000000000)
 A3 = (   0.0000000000,   0.0000000000,  11.8725295837)
 
   2 primitive cells build up your supercell.
 

 Routine SETGRP: Setting up the symmetry group for a 
 simple tetragonal supercell.


 Subroutine GETGRP returns: Found  4 space group operations
 (whereof  4 operations were pure point group operations)
 out of a pool of 16 trial point group operations.


The dynamic configuration has the point symmetry     .


Analysis of structural, dynamic, and magnetic symmetry:
=====================================================================
 Subroutine PRICEL returns:
 Original cell was already a primitive cell.
 

 Routine SETGRP: Setting up the symmetry group for a 
 simple tetragonal supercell.


 Subroutine GETGRP returns: Found  4 space group operations
 (whereof  2 operations were pure point group operations)
 out of a pool of 16 trial point group operations.


The overall configuration has the point symmetry C_2 .
 The point group associated with its full space group is C_2 .


 Subroutine INISYM returns: Found  4 space group operations
 (whereof  2 operations are pure point group operations),
 and found     1 'primitive' translations


----------------------------------------------------------------------------------------

                                     Primitive cell                                     

  volume of cell :    2745.2187

  direct lattice vectors                    reciprocal lattice vectors
    10.752311755-10.752311796  0.000000000     0.046501628 -0.046501628 -0.000000000
    10.752311796 10.752311755  0.000000000     0.046501628  0.046501628  0.000000000
    -0.000000000 -0.000000000 11.872529584    -0.000000000 -0.000000000  0.084228049

  length of vectors
    15.206065140 15.206065140 11.872529584     0.065763233  0.065763233  0.084228049

  position of ions in fractional coordinates (direct lattice)
     1.000000000  1.000000000  0.503332287
     0.500000000  0.500000000  0.503332287
     0.649246951  0.586655860  0.652707816
     0.149246951  0.086655860  0.652707816
     0.350753049  0.413344140  0.652707816
     0.850753049  0.913344140  0.652707816
     0.913344140  0.149246951  0.652707816
     0.413344140  0.649246951  0.652707816
     0.086655860  0.850753049  0.652707816
     0.586655860  0.350753049  0.652707816
     0.126450648  0.196182397  0.607663746
     0.626450648  0.696182397  0.607663746
     0.873549352  0.803817603  0.607663746
     0.373549352  0.303817603  0.607663746
     0.303817603  0.626450648  0.607663746
     0.803817603  0.126450648  0.607663746
     0.696182397  0.373549352  0.607663746
     0.196182397  0.873549352  0.607663746
     0.754677635  0.487142213  0.518431491
     0.254677635  0.987142213  0.518431491
     0.245322365  0.512857787  0.518431491
     0.745322365  0.012857787  0.518431491
     0.012857787  0.254677635  0.518431491
     0.512857787  0.754677635  0.518431491
     0.987142213  0.745322365  0.518431491
     0.487142213  0.245322365  0.518431491
     0.886931029  0.725378068  0.360368665
     0.386931029  0.225378068  0.360368665
     0.113068971  0.274621932  0.360368665
     0.613068971  0.774621932  0.360368665
     0.774621932  0.386931029  0.360368665
     0.274621932  0.886931029  0.360368665
     0.225378068  0.613068971  0.360368665
     0.725378068  0.113068971  0.360368665
     0.640012894  0.628671778  0.577995652
     0.140012894  0.128671778  0.577995652
     0.359987106  0.371328222  0.577995652
     0.859987106  0.871328222  0.577995652
     0.871328222  0.140012894  0.577995652
     0.371328222  0.640012894  0.577995652
     0.128671778  0.859987106  0.577995652
     0.628671778  0.359987106  0.577995652
     0.723503540  0.628840056  0.509484291
     0.223503540  0.128840056  0.509484291
     0.276496460  0.371159944  0.509484291
     0.776496460  0.871159944  0.509484291
     0.871159944  0.223503540  0.509484291
     0.371159944  0.723503540  0.509484291
     0.128840056  0.776496460  0.509484291
     0.628840056  0.276496460  0.509484291
     0.766314720  0.704428519  0.460775636
     0.266314720  0.204428519  0.460775636
     0.233685280  0.295571481  0.460775636
     0.733685280  0.795571481  0.460775636
     0.795571481  0.266314720  0.460775636
     0.295571481  0.766314720  0.460775636
     0.204428519  0.733685280  0.460775636
     0.704428519  0.233685280  0.460775636
     0.770945249  0.552996109  0.490625429
     0.270945249  0.052996109  0.490625429
     0.229054751  0.447003891  0.490625429
     0.729054751  0.947003891  0.490625429
     0.947003891  0.270945249  0.490625429
     0.447003891  0.770945249  0.490625429
     0.052996109  0.729054751  0.490625429
     0.552996109  0.229054751  0.490625429
     0.843335387  0.681731934  0.406368382
     0.343335387  0.181731934  0.406368382
     0.156664613  0.318268066  0.406368382
     0.656664613  0.818268066  0.406368382
     0.818268066  0.343335387  0.406368382
     0.318268066  0.843335387  0.406368382
     0.181731934  0.656664613  0.406368382
     0.681731934  0.156664613  0.406368382
     0.864054511  0.571473832  0.414281286
     0.364054511  0.071473832  0.414281286
     0.135945489  0.428526168  0.414281286
     0.635945489  0.928526168  0.414281286
     0.928526168  0.364054511  0.414281286
     0.428526168  0.864054511  0.414281286
     0.071473832  0.635945489  0.414281286
     0.571473832  0.135945489  0.414281286
     0.064926181  0.098026331  0.518054534
     0.564926181  0.598026331  0.518054534
     0.935073819  0.901973669  0.518054534
     0.435073819  0.401973669  0.518054534
     0.401973669  0.564926181  0.518054534
     0.901973669  0.064926181  0.518054534
     0.598026331  0.435073819  0.518054534
     0.098026331  0.935073819  0.518054534

  ion indices of the primitive-cell ions
   primitive index   ion index
                 1           1
                 2           2
                 3           3
                 4           4
                 5           5
                 6           6
                 7           7
                 8           8
                 9           9
                10          10
                11          11
                12          12
                13          13
                14          14
                15          15
                16          16
                17          17
                18          18
                19          19
                20          20
                21          21
                22          22
                23          23
                24          24
                25          25
                26          26
                27          27
                28          28
                29          29
                30          30
                31          31
                32          32
                33          33
                34          34
                35          35
                36          36
                37          37
                38          38
                39          39
                40          40
                41          41
                42          42
                43          43
                44          44
                45          45
                46          46
                47          47
                48          48
                49          49
                50          50
                51          51
                52          52
                53          53
                54          54
                55          55
                56          56
                57          57
                58          58
                59          59
                60          60
                61          61
                62          62
                63          63
                64          64
                65          65
                66          66
                67          67
                68          68
                69          69
                70          70
                71          71
                72          72
                73          73
                74          74
                75          75
                76          76
                77          77
                78          78
                79          79
                80          80
                81          81
                82          82
                83          83
                84          84
                85          85
                86          86
                87          87
                88          88
                89          89
                90          90

----------------------------------------------------------------------------------------

 
 
 KPOINTS: K-Path Generated by VASPKIT.            

Interpolating k-points between supplied coordinates.

 Line segments in fractional coordinates (reciprocal lattice):
    0.000000  0.000000  0.000000  ...  0.500000  0.000000  0.000000
    0.500000  0.000000  0.000000  ...  0.500000  0.500000  0.000000
    0.500000  0.500000  0.000000  ...  0.000000  0.000000  0.000000
    0.000000  0.000000  0.000000  ... -0.500000  0.500000  0.000000
   -0.500000  0.500000  0.000000  ...  0.000000  0.500000  0.000000
    0.000000  0.500000  0.000000  ...  0.000000  0.000000  0.000000

 Generated    10 points on each line segment, for a total of     60 k-points:

 Following reciprocal coordinates:
            Coordinates               Weight
  0.000000  0.000000  0.000000      0.016667
  0.055556  0.000000  0.000000      0.016667
  0.111111  0.000000  0.000000      0.016667
  0.166667  0.000000  0.000000      0.016667
  0.222222  0.000000  0.000000      0.016667
  0.277778  0.000000  0.000000      0.016667
  0.333333  0.000000  0.000000      0.016667
  0.388889  0.000000  0.000000      0.016667
  0.444444  0.000000  0.000000      0.016667
  0.500000  0.000000  0.000000      0.016667
  0.500000  0.000000  0.000000      0.016667
  0.500000  0.055556  0.000000      0.016667
  0.500000  0.111111  0.000000      0.016667
  0.500000  0.166667  0.000000      0.016667
  0.500000  0.222222  0.000000      0.016667
  0.500000  0.277778  0.000000      0.016667
  0.500000  0.333333  0.000000      0.016667
  0.500000  0.388889  0.000000      0.016667
  0.500000  0.444444  0.000000      0.016667
  0.500000  0.500000  0.000000      0.016667
  0.500000  0.500000  0.000000      0.016667
  0.444444  0.444444  0.000000      0.016667
  0.388889  0.388889  0.000000      0.016667
  0.333333  0.333333  0.000000      0.016667
  0.277778  0.277778  0.000000      0.016667
  0.222222  0.222222  0.000000      0.016667
  0.166667  0.166667  0.000000      0.016667
  0.111111  0.111111  0.000000      0.016667
  0.055556  0.055556  0.000000      0.016667
  0.000000  0.000000  0.000000      0.016667
  0.000000  0.000000  0.000000      0.016667
 -0.055556  0.055556  0.000000      0.016667
 -0.111111  0.111111  0.000000      0.016667
 -0.166667  0.166667  0.000000      0.016667
 -0.222222  0.222222  0.000000      0.016667
 -0.277778  0.277778  0.000000      0.016667
 -0.333333  0.333333  0.000000      0.016667
 -0.388889  0.388889  0.000000      0.016667
 -0.444444  0.444444  0.000000      0.016667
 -0.500000  0.500000  0.000000      0.016667
 -0.500000  0.500000  0.000000      0.016667
 -0.444444  0.500000  0.000000      0.016667
 -0.388889  0.500000  0.000000      0.016667
 -0.333333  0.500000  0.000000      0.016667
 -0.277778  0.500000  0.000000      0.016667
 -0.222222  0.500000  0.000000      0.016667
 -0.166667  0.500000  0.000000      0.016667
 -0.111111  0.500000  0.000000      0.016667
 -0.055556  0.500000  0.000000      0.016667
 -0.000000  0.500000  0.000000      0.016667
  0.000000  0.500000  0.000000      0.016667
  0.000000  0.444444  0.000000      0.016667
  0.000000  0.388889  0.000000      0.016667
  0.000000  0.333333  0.000000      0.016667
  0.000000  0.277778  0.000000      0.016667
  0.000000  0.222222  0.000000      0.016667
  0.000000  0.166667  0.000000      0.016667
  0.000000  0.111111  0.000000      0.016667
  0.000000  0.055556  0.000000      0.016667
  0.000000  0.000000  0.000000      0.016667

 Following cartesian coordinates:
            Coordinates               Weight
  0.000000  0.000000  0.000000      0.016667
  0.002583 -0.002583 -0.000000      0.016667
  0.005167 -0.005167 -0.000000      0.016667
  0.007750 -0.007750 -0.000000      0.016667
  0.010334 -0.010334 -0.000000      0.016667
  0.012917 -0.012917 -0.000000      0.016667
  0.015501 -0.015501 -0.000000      0.016667
  0.018084 -0.018084 -0.000000      0.016667
  0.020667 -0.020667 -0.000000      0.016667
  0.023251 -0.023251 -0.000000      0.016667
  0.023251 -0.023251 -0.000000      0.016667
  0.025834 -0.020667  0.000000      0.016667
  0.028418 -0.018084  0.000000      0.016667
  0.031001 -0.015501  0.000000      0.016667
  0.033585 -0.012917  0.000000      0.016667
  0.036168 -0.010334  0.000000      0.016667
  0.038751 -0.007750  0.000000      0.016667
  0.041335 -0.005167  0.000000      0.016667
  0.043918 -0.002583  0.000000      0.016667
  0.046502 -0.000000  0.000000      0.016667
  0.046502 -0.000000  0.000000      0.016667
  0.041335 -0.000000  0.000000      0.016667
  0.036168 -0.000000  0.000000      0.016667
  0.031001 -0.000000  0.000000      0.016667
  0.025834 -0.000000  0.000000      0.016667
  0.020667 -0.000000  0.000000      0.016667
  0.015501 -0.000000  0.000000      0.016667
  0.010334 -0.000000  0.000000      0.016667
  0.005167 -0.000000  0.000000      0.016667
  0.000000 -0.000000  0.000000      0.016667
  0.000000  0.000000  0.000000      0.016667
  0.000000  0.005167  0.000000      0.016667
  0.000000  0.010334  0.000000      0.016667
  0.000000  0.015501  0.000000      0.016667
  0.000000  0.020667  0.000000      0.016667
  0.000000  0.025834  0.000000      0.016667
  0.000000  0.031001  0.000000      0.016667
  0.000000  0.036168  0.000000      0.016667
  0.000000  0.041335  0.000000      0.016667
  0.000000  0.046502  0.000000      0.016667
  0.000000  0.046502  0.000000      0.016667
  0.002583  0.043918  0.000000      0.016667
  0.005167  0.041335  0.000000      0.016667
  0.007750  0.038751  0.000000      0.016667
  0.010334  0.036168  0.000000      0.016667
  0.012917  0.033585  0.000000      0.016667
  0.015501  0.031001  0.000000      0.016667
  0.018084  0.028418  0.000000      0.016667
  0.020667  0.025834  0.000000      0.016667
  0.023251  0.023251  0.000000      0.016667
  0.023251  0.023251  0.000000      0.016667
  0.020667  0.020667  0.000000      0.016667
  0.018084  0.018084  0.000000      0.016667
  0.015501  0.015501  0.000000      0.016667
  0.012917  0.012917  0.000000      0.016667
  0.010334  0.010334  0.000000      0.016667
  0.007750  0.007750  0.000000      0.016667
  0.005167  0.005167  0.000000      0.016667
  0.002583  0.002583  0.000000      0.016667
  0.000000  0.000000  0.000000      0.016667
 


--------------------------------------------------------------------------------------------------------




 Dimension of arrays:
   k-points           NKPTS =     60   k-points in BZ     NKDIM =     60   number of bands    NBANDS=    204
   number of dos      NEDOS =    301   number of ions     NIONS =     90
   non local maximal  LDIM  =      6   non local SUM 2l+1 LMDIM =     18
   total plane-waves  NPLWV = 493920
   max r-space proj   IRMAX =   1744   max aug-charges    IRDMAX=   6459
   dimension x,y,z NGX =    84 NGY =   84 NGZ =   70
   dimension x,y,z NGXF=   168 NGYF=  168 NGZF=  140
   support grid    NGXF=   168 NGYF=  168 NGZF=  140
   ions per type =               2  32  40   8   8
   NGX,Y,Z   is equivalent  to a cutoff of   9.18,  9.18,  9.80 a.u.
   NGXF,Y,Z  is equivalent  to a cutoff of  18.37, 18.37, 19.60 a.u.

 SYSTEM =  unknown system                          
 POSCAR =  Cr2 H32 C40 S8 O8                       

 Startparameter for this run:
   NWRITE =      2    write-flag & timer
   PREC   = normal    normal or accurate (medium, high low for compatibility)
   ISTART =      0    job   : 0-new  1-cont  2-samecut
   ICHARG =     11    charge: 1-file 2-atom 10-const
   ISPIN  =      2    spin polarized calculation?
   LNONCOLLINEAR =      F non collinear calculations
   LSORBIT =      F    spin-orbit coupling
   INIWAV =      1    electr: 0-lowe 1-rand  2-diag
   LASPH  =      F    aspherical Exc in radial PAW
 Electronic Relaxation 1
   ENCUT  =  500.0 eV  36.75 Ry    6.06 a.u.  27.72 27.72 21.65*2*pi/ulx,y,z
   ENINI  =  500.0     initial cutoff
   ENAUG  =  644.9 eV  augmentation charge cutoff
   NELM   =    200;   NELMIN=  2; NELMDL=  0     # of ELM steps 
   EDIFF  = 0.1E-04   stopping-criterion for ELM
   LREAL  =      T    real-space projection
   NLSPLINE    = F    spline interpolate recip. space projectors
   LCOMPAT=      F    compatible to vasp.4.4
   GGA_COMPAT  = T    GGA compatible to vasp.4.4-vasp.4.6
   LMAXPAW     = -100 max onsite density
   LMAXMIX     =    4 max onsite mixed and CHGCAR
   VOSKOWN=      0    Vosko Wilk Nusair interpolation
   ROPT   =   -0.00050  -0.00050  -0.00050  -0.00050
   ROPT   =   -0.00050
 Ionic relaxation
   EDIFFG = -.1E-01   stopping-criterion for IOM
   NSW    =      0    number of steps for IOM
   NBLOCK =      1;   KBLOCK =      1    inner block; outer block 
   IBRION =     -1    ionic relax: 0-MD 1-quasi-New 2-CG
   NFREE  =      0    steps in history (QN), initial steepest desc. (CG)
   ISIF   =      2    stress and relaxation
   IWAVPR =     10    prediction:  0-non 1-charg 2-wave 3-comb
   ISYM   =      2    0-nonsym 1-usesym 2-fastsym
   LCORR  =      T    Harris-Foulkes like correction to forces

   POTIM  = 0.5000    time-step for ionic-motion
   TEIN   =    0.0    initial temperature
   TEBEG  =    0.0;   TEEND  =   0.0 temperature during run
   SMASS  =  -3.00    Nose mass-parameter (am)
   estimated Nose-frequenzy (Omega)   =  0.10E-29 period in steps = 0.13E+47 mass=  -0.528E-26a.u.
   SCALEE = 1.0000    scale energy and forces
   NPACO  =    256;   APACO  = 10.0  distance and # of slots for P.C.
   PSTRESS=    0.0 pullay stress

  Mass of Ions in am
   POMASS =  52.00  1.00 12.01 32.07 16.00
  Ionic Valenz
   ZVAL   =  12.00  1.00  4.00  6.00  6.00
  Atomic Wigner-Seitz radii
   RWIGS  =  -1.00 -1.00 -1.00 -1.00 -1.00
  virtual crystal weights 
   VCA    =   1.00  1.00  1.00  1.00  1.00
   NELECT =     312.0000    total number of electrons
   NUPDOWN=      -1.0000    fix difference up-down

 DOS related values:
   EMIN   =  10.00;   EMAX   =-10.00  energy-range for DOS
   EFERMI =   0.00
   ISMEAR =     1;   SIGMA  =   0.20  broadening in eV -4-tet -1-fermi 0-gaus

 Electronic relaxation 2 (details)
   IALGO  =     68    algorithm
   LDIAG  =      T    sub-space diagonalisation (order eigenvalues)
   LSUBROT=      F    optimize rotation matrix (better conditioning)
   TURBO    =      0    0=normal 1=particle mesh
   IRESTART =      0    0=no restart 2=restart with 2 vectors
   NREBOOT  =      0    no. of reboots
   NMIN     =      0    reboot dimension
   EREF     =   0.00    reference energy to select bands
   IMIX   =      4    mixing-type and parameters
     AMIX     =   0.20;   BMIX     =  0.00
     AMIX_MAG =   0.80;   BMIX_MAG =  0.00
     AMIN     =   0.10
     WC   =   100.;   INIMIX=   1;  MIXPRE=   1;  MAXMIX= -45

 Intra band minimization:
   WEIMIN = 0.0000     energy-eigenvalue tresh-hold
   EBREAK =  0.12E-07  absolut break condition
   DEPER  =   0.30     relativ break condition  

   TIME   =   0.40     timestep for ELM

  volume/ion in A,a.u.               =      30.50       205.84
  Fermi-wavevector in a.u.,A,eV,Ry     =   0.792989  1.498533  8.555781  0.628832
  Thomas-Fermi vector in A             =   1.898837
 
 Write flags
   LWAVE        =      F    write WAVECAR
   LDOWNSAMPLE  =      F    k-point downsampling of WAVECAR
   LCHARG       =      F    write CHGCAR
   LVTOT        =      T    write LOCPOT, total local potential
   LVHAR        =      F    write LOCPOT, Hartree potential only
   LELF         =      F    write electronic localiz. function (ELF)
   LORBIT       =     11    0 simple, 1 ext, 2 COOP (PROOUT), +10 PAW based schemes


 Dipole corrections
   LMONO  =      F    monopole corrections only (constant potential shift)
   LDIPOL =      F    correct potential (dipole corrections)
   IDIPOL =      0    1-x, 2-y, 3-z, 4-all directions 
   EPSILON=  1.0000000 bulk dielectric constant

 LDA+U is selected, type is set to LDAUTYPE =  2
   angular momentum for each species LDAUL =     2   -1   -1   -1   -1
   U (eV)           for each species LDAUU =   3.0  0.0  0.0  0.0  0.0
   J (eV)           for each species LDAUJ =   1.0  0.0  0.0  0.0  0.0
 Exchange correlation treatment:
   GGA     =    --    GGA type
   LEXCH   =     8    internal setting for exchange type
   LIBXC   =     F    Libxc                    
   VOSKOWN =     0    Vosko Wilk Nusair interpolation
   LHFCALC =     F    Hartree Fock is set to
   LHFONE  =     F    Hartree Fock one center treatment
   AEXX    =    0.0000 exact exchange contribution

 Linear response parameters
   LEPSILON=     F    determine dielectric tensor
   LRPA    =     F    only Hartree local field effects (RPA)
   LNABLA  =     F    use nabla operator in PAW spheres
   LVEL    =     F    velocity operator in full k-point grid
   CSHIFT  =0.1000    complex shift for real part using Kramers Kronig
   OMEGAMAX=  -1.0    maximum frequency
   DEG_THRESHOLD= 0.2000000E-02 threshold for treating states as degnerate
   RTIME   =   -0.100 relaxation time in fs
  (WPLASMAI=    0.000 imaginary part of plasma frequency in eV, 0.658/RTIME)
   DFIELD  = 0.0000000 0.0000000 0.0000000 field for delta impulse in time
 
  Optional k-point grid parameters
   LKPOINTS_OPT  =     F    use optional k-point grid
   KPOINTS_OPT_MODE=     1    mode for optional k-point grid
 
 Orbital magnetization related:
   ORBITALMAG=     F  switch on orbital magnetization
   LCHIMAG   =     F  perturbation theory with respect to B field
   DQ        =  0.001000  dq finite difference perturbation B field
   LLRAUG    =     F  two centre corrections for induced B field



--------------------------------------------------------------------------------------------------------


 Static calculation
 charge density and potential remain constant during run
 spin polarized calculation
 RMM-DIIS sequential band-by-band and
  variant of blocked Davidson during initial phase
 perform sub-space diagonalisation
    before iterative eigenvector-optimisation
 no mixing
 using additional bands           48
 real space projection scheme for non local part
 use partial core corrections
 calculate Harris-corrections to forces 
   (improved forces if not selfconsistent)
 use gradient corrections 
 WARNING: stress and forces are not correct
  (second derivative of E(xc) not defined)
 use of overlap-Matrix (Vanderbilt PP)
 Methfessel and Paxton  Order N= 1 SIGMA  =   0.20


--------------------------------------------------------------------------------------------------------


  energy-cutoff  :      500.00
  volume of cell :     2745.22
      direct lattice vectors                 reciprocal lattice vectors
    10.752311755-10.752311796  0.000000000     0.046501628 -0.046501628 -0.000000000
    10.752311796 10.752311755  0.000000000     0.046501628  0.046501628  0.000000000
    -0.000000000 -0.000000000 11.872529584    -0.000000000 -0.000000000  0.084228049

  length of vectors
    15.206065140 15.206065140 11.872529584     0.065763233  0.065763233  0.084228049


 
 k-points in units of 2pi/SCALE and weight: K-Path Generated by VASPKIT.            
   0.00000000  0.00000000  0.00000000       0.017
   0.00258342 -0.00258342 -0.00000000       0.017
   0.00516685 -0.00516685 -0.00000000       0.017
   0.00775027 -0.00775027 -0.00000000       0.017
   0.01033370 -0.01033370 -0.00000000       0.017
   0.01291712 -0.01291712 -0.00000000       0.017
   0.01550054 -0.01550054 -0.00000000       0.017
   0.01808397 -0.01808397 -0.00000000       0.017
   0.02066739 -0.02066739 -0.00000000       0.017
   0.02325081 -0.02325081 -0.00000000       0.017
   0.02325081 -0.02325081 -0.00000000       0.017
   0.02583424 -0.02066739  0.00000000       0.017
   0.02841766 -0.01808397  0.00000000       0.017
   0.03100109 -0.01550054  0.00000000       0.017
   0.03358451 -0.01291712  0.00000000       0.017
   0.03616793 -0.01033370  0.00000000       0.017
   0.03875136 -0.00775027  0.00000000       0.017
   0.04133478 -0.00516685  0.00000000       0.017
   0.04391820 -0.00258342  0.00000000       0.017
   0.04650163 -0.00000000  0.00000000       0.017
   0.04650163 -0.00000000  0.00000000       0.017
   0.04133478 -0.00000000  0.00000000       0.017
   0.03616793 -0.00000000  0.00000000       0.017
   0.03100109 -0.00000000  0.00000000       0.017
   0.02583424 -0.00000000  0.00000000       0.017
   0.02066739 -0.00000000  0.00000000       0.017
   0.01550054 -0.00000000  0.00000000       0.017
   0.01033370 -0.00000000  0.00000000       0.017
   0.00516685 -0.00000000  0.00000000       0.017
   0.00000000 -0.00000000  0.00000000       0.017
   0.00000000  0.00000000  0.00000000       0.017
   0.00000000  0.00516685  0.00000000       0.017
   0.00000000  0.01033370  0.00000000       0.017
   0.00000000  0.01550054  0.00000000       0.017
   0.00000000  0.02066739  0.00000000       0.017
   0.00000000  0.02583424  0.00000000       0.017
   0.00000000  0.03100109  0.00000000       0.017
   0.00000000  0.03616793  0.00000000       0.017
   0.00000000  0.04133478  0.00000000       0.017
   0.00000000  0.04650163  0.00000000       0.017
   0.00000000  0.04650163  0.00000000       0.017
   0.00258342  0.04391820  0.00000000       0.017
   0.00516685  0.04133478  0.00000000       0.017
   0.00775027  0.03875136  0.00000000       0.017
   0.01033370  0.03616793  0.00000000       0.017
   0.01291712  0.03358451  0.00000000       0.017
   0.01550054  0.03100109  0.00000000       0.017
   0.01808397  0.02841766  0.00000000       0.017
   0.02066739  0.02583424  0.00000000       0.017
   0.02325081  0.02325081  0.00000000       0.017
   0.02325081  0.02325081  0.00000000       0.017
   0.02066739  0.02066739  0.00000000       0.017
   0.01808397  0.01808397  0.00000000       0.017
   0.01550054  0.01550054  0.00000000       0.017
   0.01291712  0.01291712  0.00000000       0.017
   0.01033370  0.01033370  0.00000000       0.017
   0.00775027  0.00775027  0.00000000       0.017
   0.00516685  0.00516685  0.00000000       0.017
   0.00258342  0.00258342  0.00000000       0.017
   0.00000000  0.00000000  0.00000000       0.017
 
 k-points in reciprocal lattice and weights: K-Path Generated by VASPKIT.            
   0.00000000  0.00000000  0.00000000       0.017
   0.05555556  0.00000000  0.00000000       0.017
   0.11111111  0.00000000  0.00000000       0.017
   0.16666667  0.00000000  0.00000000       0.017
   0.22222222  0.00000000  0.00000000       0.017
   0.27777778  0.00000000  0.00000000       0.017
   0.33333333  0.00000000  0.00000000       0.017
   0.38888889  0.00000000  0.00000000       0.017
   0.44444444  0.00000000  0.00000000       0.017
   0.50000000  0.00000000  0.00000000       0.017
   0.50000000  0.00000000  0.00000000       0.017
   0.50000000  0.05555556  0.00000000       0.017
   0.50000000  0.11111111  0.00000000       0.017
   0.50000000  0.16666667  0.00000000       0.017
   0.50000000  0.22222222  0.00000000       0.017
   0.50000000  0.27777778  0.00000000       0.017
   0.50000000  0.33333333  0.00000000       0.017
   0.50000000  0.38888889  0.00000000       0.017
   0.50000000  0.44444444  0.00000000       0.017
   0.50000000  0.50000000  0.00000000       0.017
   0.50000000  0.50000000  0.00000000       0.017
   0.44444444  0.44444444  0.00000000       0.017
   0.38888889  0.38888889  0.00000000       0.017
   0.33333333  0.33333333  0.00000000       0.017
   0.27777778  0.27777778  0.00000000       0.017
   0.22222222  0.22222222  0.00000000       0.017
   0.16666667  0.16666667  0.00000000       0.017
   0.11111111  0.11111111  0.00000000       0.017
   0.05555556  0.05555556  0.00000000       0.017
   0.00000000  0.00000000  0.00000000       0.017
   0.00000000  0.00000000  0.00000000       0.017
  -0.05555556  0.05555556  0.00000000       0.017
  -0.11111111  0.11111111  0.00000000       0.017
  -0.16666667  0.16666667  0.00000000       0.017
  -0.22222222  0.22222222  0.00000000       0.017
  -0.27777778  0.27777778  0.00000000       0.017
  -0.33333333  0.33333333  0.00000000       0.017
  -0.38888889  0.38888889  0.00000000       0.017
  -0.44444444  0.44444444  0.00000000       0.017
  -0.50000000  0.50000000  0.00000000       0.017
  -0.50000000  0.50000000  0.00000000       0.017
  -0.44444444  0.50000000  0.00000000       0.017
  -0.38888889  0.50000000  0.00000000       0.017
  -0.33333333  0.50000000  0.00000000       0.017
  -0.27777778  0.50000000  0.00000000       0.017
  -0.22222222  0.50000000  0.00000000       0.017
  -0.16666667  0.50000000  0.00000000       0.017
  -0.11111111  0.50000000  0.00000000       0.017
  -0.05555556  0.50000000  0.00000000       0.017
  -0.00000000  0.50000000  0.00000000       0.017
   0.00000000  0.50000000  0.00000000       0.017
   0.00000000  0.44444444  0.00000000       0.017
   0.00000000  0.38888889  0.00000000       0.017
   0.00000000  0.33333333  0.00000000       0.017
   0.00000000  0.27777778  0.00000000       0.017
   0.00000000  0.22222222  0.00000000       0.017
   0.00000000  0.16666667  0.00000000       0.017
   0.00000000  0.11111111  0.00000000       0.017
   0.00000000  0.05555556  0.00000000       0.017
   0.00000000  0.00000000  0.00000000       0.017
 
 position of ions in fractional coordinates (direct lattice) 
   0.00000000  0.00000000  0.50333229
   0.50000000  0.50000000  0.50333229
   0.64924695  0.58665586  0.65270782
   0.14924695  0.08665586  0.65270782
   0.35075305  0.41334414  0.65270782
   0.85075305  0.91334414  0.65270782
   0.91334414  0.14924695  0.65270782
   0.41334414  0.64924695  0.65270782
   0.08665586  0.85075305  0.65270782
   0.58665586  0.35075305  0.65270782
   0.12645065  0.19618240  0.60766375
   0.62645065  0.69618240  0.60766375
   0.87354935  0.80381760  0.60766375
   0.37354935  0.30381760  0.60766375
   0.30381760  0.62645065  0.60766375
   0.80381760  0.12645065  0.60766375
   0.69618240  0.37354935  0.60766375
   0.19618240  0.87354935  0.60766375
   0.75467763  0.48714221  0.51843149
   0.25467763  0.98714221  0.51843149
   0.24532237  0.51285779  0.51843149
   0.74532237  0.01285779  0.51843149
   0.01285779  0.25467763  0.51843149
   0.51285779  0.75467763  0.51843149
   0.98714221  0.74532237  0.51843149
   0.48714221  0.24532237  0.51843149
   0.88693103  0.72537807  0.36036867
   0.38693103  0.22537807  0.36036867
   0.11306897  0.27462193  0.36036867
   0.61306897  0.77462193  0.36036867
   0.77462193  0.38693103  0.36036867
   0.27462193  0.88693103  0.36036867
   0.22537807  0.61306897  0.36036867
   0.72537807  0.11306897  0.36036867
   0.64001289  0.62867178  0.57799565
   0.14001289  0.12867178  0.57799565
   0.35998711  0.37132822  0.57799565
   0.85998711  0.87132822  0.57799565
   0.87132822  0.14001289  0.57799565
   0.37132822  0.64001289  0.57799565
   0.12867178  0.85998711  0.57799565
   0.62867178  0.35998711  0.57799565
   0.72350354  0.62884006  0.50948429
   0.22350354  0.12884006  0.50948429
   0.27649646  0.37115994  0.50948429
   0.77649646  0.87115994  0.50948429
   0.87115994  0.22350354  0.50948429
   0.37115994  0.72350354  0.50948429
   0.12884006  0.77649646  0.50948429
   0.62884006  0.27649646  0.50948429
   0.76631472  0.70442852  0.46077564
   0.26631472  0.20442852  0.46077564
   0.23368528  0.29557148  0.46077564
   0.73368528  0.79557148  0.46077564
   0.79557148  0.26631472  0.46077564
   0.29557148  0.76631472  0.46077564
   0.20442852  0.73368528  0.46077564
   0.70442852  0.23368528  0.46077564
   0.77094525  0.55299611  0.49062543
   0.27094525  0.05299611  0.49062543
   0.22905475  0.44700389  0.49062543
   0.72905475  0.94700389  0.49062543
   0.94700389  0.27094525  0.49062543
   0.44700389  0.77094525  0.49062543
   0.05299611  0.72905475  0.49062543
   0.55299611  0.22905475  0.49062543
   0.84333539  0.68173193  0.40636838
   0.34333539  0.18173193  0.40636838
   0.15666461  0.31826807  0.40636838
   0.65666461  0.81826807  0.40636838
   0.81826807  0.34333539  0.40636838
   0.31826807  0.84333539  0.40636838
   0.18173193  0.65666461  0.40636838
   0.68173193  0.15666461  0.40636838
   0.86405451  0.57147383  0.41428129
   0.36405451  0.07147383  0.41428129
   0.13594549  0.42852617  0.41428129
   0.63594549  0.92852617  0.41428129
   0.92852617  0.36405451  0.41428129
   0.42852617  0.86405451  0.41428129
   0.07147383  0.63594549  0.41428129
   0.57147383  0.13594549  0.41428129
   0.06492618  0.09802633  0.51805453
   0.56492618  0.59802633  0.51805453
   0.93507382  0.90197367  0.51805453
   0.43507382  0.40197367  0.51805453
   0.40197367  0.56492618  0.51805453
   0.90197367  0.06492618  0.51805453
   0.59802633  0.43507382  0.51805453
   0.09802633  0.93507382  0.51805453
 
 position of ions in cartesian coordinates  (Angst):
  -0.00000000 -0.00000000  5.97582747
  10.75231178 -0.00000002  5.97582747
  13.28881235 -0.67299895  7.74929286
   2.53650058 -0.67299893  7.74929286
   8.21581120  0.67299891  7.74929286
  18.96812298  0.67299889  7.74929286
  11.42531068 -8.21581122  7.74929286
  11.42531070  2.53650055  7.74929286
  10.07931287  8.21581118  7.74929286
  10.07931285 -2.53650060  7.74929286
   3.46905109  0.74977750  7.21450580
  14.22136286  0.74977748  7.21450580
  18.03557246 -0.74977755  7.21450580
   7.28326069 -0.74977753  7.21450580
  10.00253427  3.46905107  7.21450580
  10.00253425 -7.28326071  7.21450580
  11.50208928 -3.46905111  7.21450580
  11.50208930  7.28326067  7.21450580
  13.35243417 -2.87662429  6.15509321
  13.35243419  7.87568749  6.15509321
   8.15218938  2.87662425  6.15509321
   8.15218936 -7.87568753  6.15509321
   2.87662427  2.60012240  6.15509321
  13.62893604  2.60012238  6.15509321
  18.62799928 -2.60012244  6.15509321
   7.87568751 -2.60012242  6.15509321
  17.33605009 -1.73706783  4.27848764
   6.58373831 -1.73706781  4.27848764
   4.16857346  1.73706779  4.27848764
  14.92088524  1.73706777  4.27848764
  12.48937957 -4.16857349  4.27848764
  12.48937959  6.58373829  4.27848764
   9.01524398  4.16857344  4.27848764
   9.01524396 -6.58373833  4.27848764
  13.64129314 -0.12194324  6.86227048
   2.88898137 -0.12194322  6.86227048
   7.86333041  0.12194320  6.86227048
  18.61564218  0.12194318  6.86227048
  10.87425498 -7.86333043  6.86227048
  10.87425500  2.88898135  6.86227048
  10.63036858  7.86333039  6.86227048
  10.63036855 -2.88898139  6.86227048
  14.54081997 -1.01785133  6.04886732
   3.78850820 -1.01785130  6.04886732
   6.96380358  1.01785128  6.04886732
  17.71611536  1.01785126  6.04886732
  11.77016306 -6.96380360  6.04886732
  11.77016308  3.78850817  6.04886732
   9.73446049  6.96380356  6.04886732
   9.73446047 -3.78850822  6.04886732
  15.81388985 -0.66541975  5.47057236
   5.06157807 -0.66541973  5.47057236
   5.69073370  0.66541971  5.47057236
  16.44304548  0.66541969  5.47057236
  11.41773149 -5.69073372  5.47057236
  11.41773151  5.06157805  5.47057236
  10.08689207  5.69073368  5.47057236
  10.08689204 -5.06157809  5.47057236
  14.23543025 -2.34345713  5.82496492
   3.48311847 -2.34345711  5.82496492
   7.26919330  2.34345709  5.82496492
  18.02150508  2.34345706  5.82496492
  13.09576886 -7.26919332  5.82496492
  13.09576888  3.48311845  5.82496492
   8.40885469  7.26919328  5.82496492
   8.40885467 -3.48311850  5.82496492
  16.39799931 -1.73761075  4.82462064
   5.64568754 -1.73761073  4.82462064
   5.10662424  1.73761071  4.82462064
  15.85893601  1.73761069  4.82462064
  12.48992248 -5.10662426  4.82462064
  12.48992250  5.64568752  4.82462064
   9.01470107  5.10662422  4.82462064
   9.01470105 -5.64568756  4.82462064
  15.43524830 -3.14591870  4.91856683
   4.68293653 -3.14591868  4.91856683
   6.06937525  3.14591866  4.91856683
  16.82168703  3.14591864  4.91856683
  13.89823044 -6.06937527  4.91856683
  13.89823046  4.68293650  4.91856683
   7.60639311  6.06937523  4.91856683
   7.60639309 -4.68293655  4.91856683
   1.75211622  0.35590314  6.15061779
  12.50442799  0.35590311  6.15061779
  19.75250733 -0.35590318  6.15061779
   9.00019556 -0.35590316  6.15061779
  10.39640864  1.75211620  6.15061779
  10.39640862 -9.00019558  6.15061779
  11.10821491 -1.75211624  6.15061779
  11.10821493  9.00019554  6.15061779
 


--------------------------------------------------------------------------------------------------------


 k-point   1 :   0.0000 0.0000 0.0000  plane waves:   69683
 k-point   2 :   0.0556 0.0000 0.0000  plane waves:   69735
 k-point   3 :   0.1111 0.0000 0.0000  plane waves:   69727
 k-point   4 :   0.1667 0.0000 0.0000  plane waves:   69699
 k-point   5 :   0.2222 0.0000 0.0000  plane waves:   69701
 k-point   6 :   0.2778 0.0000 0.0000  plane waves:   69698
 k-point   7 :   0.3333 0.0000 0.0000  plane waves:   69714
 k-point   8 :   0.3889 0.0000 0.0000  plane waves:   69714
 k-point   9 :   0.4444 0.0000 0.0000  plane waves:   69738
 k-point  10 :   0.5000 0.0000 0.0000  plane waves:   69732
 k-point  11 :   0.5000 0.0000 0.0000  plane waves:   69732
 k-point  12 :   0.5000 0.0556 0.0000  plane waves:   69756
 k-point  13 :   0.5000 0.1111 0.0000  plane waves:   69764
 k-point  14 :   0.5000 0.1667 0.0000  plane waves:   69748
 k-point  15 :   0.5000 0.2222 0.0000  plane waves:   69698
 k-point  16 :   0.5000 0.2778 0.0000  plane waves:   69674
 k-point  17 :   0.5000 0.3333 0.0000  plane waves:   69702
 k-point  18 :   0.5000 0.3889 0.0000  plane waves:   69698
 k-point  19 :   0.5000 0.4444 0.0000  plane waves:   69724
 k-point  20 :   0.5000 0.5000 0.0000  plane waves:   69720
 k-point  21 :   0.5000 0.5000 0.0000  plane waves:   69720
 k-point  22 :   0.4444 0.4444 0.0000  plane waves:   69718
 k-point  23 :   0.3889 0.3889 0.0000  plane waves:   69707
 k-point  24 :   0.3333 0.3333 0.0000  plane waves:   69691
 k-point  25 :   0.2778 0.2778 0.0000  plane waves:   69695
 k-point  26 :   0.2222 0.2222 0.0000  plane waves:   69663
 k-point  27 :   0.1667 0.1667 0.0000  plane waves:   69707
 k-point  28 :   0.1111 0.1111 0.0000  plane waves:   69711
 k-point  29 :   0.0556 0.0556 0.0000  plane waves:   69719
 k-point  30 :   0.0000 0.0000 0.0000  plane waves:   69683
 k-point  31 :   0.0000 0.0000 0.0000  plane waves:   69683
 k-point  32 :  -0.0556 0.0556 0.0000  plane waves:   69719
 k-point  33 :  -0.1111 0.1111 0.0000  plane waves:   69711
 k-point  34 :  -0.1667 0.1667 0.0000  plane waves:   69707
 k-point  35 :  -0.2222 0.2222 0.0000  plane waves:   69663
 k-point  36 :  -0.2778 0.2778 0.0000  plane waves:   69695
 k-point  37 :  -0.3333 0.3333 0.0000  plane waves:   69691
 k-point  38 :  -0.3889 0.3889 0.0000  plane waves:   69707
 k-point  39 :  -0.4444 0.4444 0.0000  plane waves:   69718
 k-point  40 :  -0.5000 0.5000 0.0000  plane waves:   69720
 k-point  41 :  -0.5000 0.5000 0.0000  plane waves:   69720
 k-point  42 :  -0.4444 0.5000 0.0000  plane waves:   69724
 k-point  43 :  -0.3889 0.5000 0.0000  plane waves:   69698
 k-point  44 :  -0.3333 0.5000 0.0000  plane waves:   69702
 k-point  45 :  -0.2778 0.5000 0.0000  plane waves:   69674
 k-point  46 :  -0.2222 0.5000 0.0000  plane waves:   69698
 k-point  47 :  -0.1667 0.5000 0.0000  plane waves:   69748
 k-point  48 :  -0.1111 0.5000 0.0000  plane waves:   69764
 k-point  49 :  -0.0556 0.5000 0.0000  plane waves:   69756
 k-point  50 :  -0.0000 0.5000 0.0000  plane waves:   69732
 k-point  51 :   0.0000 0.5000 0.0000  plane waves:   69732
 k-point  52 :   0.0000 0.4444 0.0000  plane waves:   69738
 k-point  53 :   0.0000 0.3889 0.0000  plane waves:   69714
 k-point  54 :   0.0000 0.3333 0.0000  plane waves:   69714
 k-point  55 :   0.0000 0.2778 0.0000  plane waves:   69698
 k-point  56 :   0.0000 0.2222 0.0000  plane waves:   69701
 k-point  57 :   0.0000 0.1667 0.0000  plane waves:   69699
 k-point  58 :   0.0000 0.1111 0.0000  plane waves:   69727
 k-point  59 :   0.0000 0.0556 0.0000  plane waves:   69735
 k-point  60 :   0.0000 0.0000 0.0000  plane waves:   69683

 maximum and minimum number of plane-waves per node :      4404     4320

 maximum number of plane-waves:     69764
 maximum index in each direction: 
   IXMAX=   28   IYMAX=   27   IZMAX=   21
   IXMIN=  -28   IYMIN=  -28   IZMIN=  -21


 real space projection operators:
  total allocation   :       4712.09 KBytes
  max/ min on nodes  :        326.87        280.58


 parallel 3D FFT for wavefunctions:
    minimum data exchange during FFTs selected (reduces bandwidth)
 parallel 3D FFT for charge:
    minimum data exchange during FFTs selected (reduces bandwidth)


 total amount of memory used by VASP MPI-rank0   487640. kBytes
=======================================================================

   base      :      30000. kBytes
   nonlr-proj:       2990. kBytes
   fftplans  :       5853. kBytes
   grid      :      15805. kBytes
   one-center:        186. kBytes
   wavefun   :     432806. kBytes
 
     INWAV:  cpu time      0.0000: real time      0.0000
 initial charge density was supplied:
 number of electron     312.0000075 magnetization       0.0000000
 keeping initial charge density in first step


--------------------------------------------------------------------------------------------------------


 Maximum index for non-local projection operator          290
 Maximum index for augmentation-charges          412 (set IRDMAX)


--------------------------------------------------------------------------------------------------------


 First call to EWALD:  gamma=   0.127
 Maximum number of real-space cells 3x 3x 3
 Maximum number of reciprocal cells 3x 3x 2

    FEWALD:  cpu time      0.0020: real time      0.0019


--------------------------------------- Iteration      1(   1)  ---------------------------------------


    POTLOK:  cpu time      0.0993: real time      0.1028
    SETDIJ:  cpu time      0.0148: real time      0.0173
     EDDAV:  cpu time     49.0280: real time     49.0803
       DOS:  cpu time      0.0155: real time      0.0164
    --------------------------------------------
      LOOP:  cpu time     49.1577: real time     49.2170

 eigenvalue-minimisations  : 51584
 total energy-change (2. order) : 0.2198156E+04  (-0.1175792E+05)
 number of electron     312.0000075 magnetization       0.0000000
 augmentation part      312.0000075 magnetization       0.0000000

 Free energy of the ion-electron system (eV)
  ---------------------------------------------------
  alpha Z        PSCENC =       165.95277756
  Ewald energy   TEWEN  =     14531.22672474
  -Hartree energ DENC   =    -27848.21675578
  -exchange      EXHF   =         0.00000000
  -V(xc)+E(xc)   XCENC  =      1072.44359563
  PAW double counting   =     31077.52493012   -31195.39023878
  entropy T*S    EENTRO =        -0.00285039
  eigenvalues    EBANDS =      -860.12818062
  atomic energy  EATOM  =     15254.74550814
  Solvation  Ediel_sol  =         0.00000000
  ---------------------------------------------------
  free energy    TOTEN  =      2198.15551062 eV

  energy without entropy =     2198.15836100  energy(sigma->0) =     2198.15646075


--------------------------------------------------------------------------------------------------------




--------------------------------------- Iteration      1(   2)  ---------------------------------------


     EDDAV:  cpu time     64.3360: real time     64.3899
       DOS:  cpu time      0.0122: real time      0.0122
    --------------------------------------------
      LOOP:  cpu time     64.3481: real time     64.4020

 eigenvalue-minimisations  : 72280
 total energy-change (2. order) :-0.2307146E+04  (-0.2192638E+04)
 number of electron     312.0000075 magnetization       0.0000000
 augmentation part      312.0000075 magnetization       0.0000000

 Free energy of the ion-electron system (eV)
[...]
   0.356E+02 -.219E+03 0.178E+03   -.359E+02 0.223E+03 -.180E+03   0.368E+00 -.407E+01 0.128E+01   0.186E-02 -.172E-02 0.339E-02
   0.356E+02 -.219E+03 0.178E+03   -.359E+02 0.223E+03 -.180E+03   0.369E+00 -.407E+01 0.127E+01   0.171E-02 -.159E-02 0.326E-02
   -.219E+03 -.356E+02 0.178E+03   0.223E+03 0.359E+02 -.180E+03   -.407E+01 -.368E+00 0.128E+01   -.172E-02 -.186E-02 0.339E-02
   -.219E+03 -.356E+02 0.178E+03   0.223E+03 0.359E+02 -.180E+03   -.407E+01 -.369E+00 0.127E+01   -.159E-02 -.171E-02 0.326E-02
   0.219E+03 0.356E+02 0.178E+03   -.223E+03 -.359E+02 -.180E+03   0.407E+01 0.368E+00 0.128E+01   0.172E-02 0.186E-02 0.339E-02
   0.219E+03 0.356E+02 0.178E+03   -.223E+03 -.359E+02 -.180E+03   0.407E+01 0.369E+00 0.127E+01   0.159E-02 0.171E-02 0.326E-02
   -.209E+03 -.115E+03 0.198E+02   0.199E+03 0.132E+03 -.370E+02   0.107E+02 -.168E+02 0.170E+02   0.503E-02 0.122E-01 -.227E-03
   -.209E+03 -.116E+03 0.196E+02   0.199E+03 0.132E+03 -.370E+02   0.106E+02 -.163E+02 0.174E+02   0.796E-02 0.396E-02 -.584E-03
   0.209E+03 0.115E+03 0.198E+02   -.199E+03 -.132E+03 -.370E+02   -.107E+02 0.168E+02 0.170E+02   -.503E-02 -.122E-01 -.227E-03
   0.209E+03 0.116E+03 0.196E+02   -.199E+03 -.132E+03 -.370E+02   -.106E+02 0.163E+02 0.174E+02   -.796E-02 -.396E-02 -.584E-03
   0.115E+03 -.209E+03 0.198E+02   -.132E+03 0.199E+03 -.370E+02   0.168E+02 0.107E+02 0.170E+02   -.122E-01 0.503E-02 -.227E-03
   0.116E+03 -.209E+03 0.196E+02   -.132E+03 0.199E+03 -.370E+02   0.163E+02 0.106E+02 0.174E+02   -.396E-02 0.796E-02 -.584E-03
   -.115E+03 0.209E+03 0.198E+02   0.132E+03 -.199E+03 -.370E+02   -.168E+02 -.107E+02 0.170E+02   0.122E-01 -.503E-02 -.227E-03
   -.116E+03 0.209E+03 0.196E+02   0.132E+03 -.199E+03 -.370E+02   -.163E+02 -.106E+02 0.174E+02   0.396E-02 -.796E-02 -.584E-03
 -----------------------------------------------------------------------------------------------
   0.345E-10 -.416E-07 -.471E+02   0.284E-12 0.142E-12 -.256E-12   0.355E-14 0.533E-14 0.471E+02   -.710E-11 -.106E-11 0.391E-01
 
 
 POSITION                                       TOTAL-FORCE (eV/Angst)
 -----------------------------------------------------------------------------------
     -0.00000     -0.00000      5.97583        -0.000000     -0.000000      0.612108
     10.75231     -0.00000      5.97583        -0.000000     -0.000000      0.612108
     13.28881     -0.67300      7.74929         0.045913     -0.029677      0.075434
      2.53650     -0.67300      7.74929         0.028346     -0.060586      0.087951
      8.21581      0.67300      7.74929        -0.045913      0.029677      0.075434
     18.96812      0.67300      7.74929        -0.028346      0.060586      0.087951
     11.42531     -8.21581      7.74929         0.029677      0.045913      0.075434
     11.42531      2.53650      7.74929         0.060586      0.028346      0.087951
     10.07931      8.21581      7.74929        -0.029677     -0.045913      0.075434
     10.07931     -2.53650      7.74929        -0.060586     -0.028346      0.087951
      3.46905      0.74978      7.21451         0.004803     -0.000682      0.032399
     14.22136      0.74978      7.21451        -0.000914     -0.002845      0.037591
     18.03557     -0.74978      7.21451        -0.004803      0.000682      0.032399
      7.28326     -0.74978      7.21451         0.000914      0.002845      0.037591
     10.00253      3.46905      7.21451         0.000682      0.004803      0.032399
     10.00253     -7.28326      7.21451         0.002845     -0.000914      0.037591
     11.50209     -3.46905      7.21451        -0.000682     -0.004803      0.032399
     11.50209      7.28326      7.21451        -0.002845      0.000914      0.037591
     13.35243     -2.87662      6.15509        -0.010904     -0.001322      0.002128
     13.35243      7.87569      6.15509        -0.005432     -0.001985      0.006240
      8.15219      2.87662      6.15509         0.010904      0.001322      0.002128
      8.15219     -7.87569      6.15509         0.005432      0.001985      0.006240
      2.87662      2.60012      6.15509         0.001322     -0.010904      0.002128
     13.62894      2.60012      6.15509         0.001985     -0.005432      0.006240
     18.62800     -2.60012      6.15509        -0.001322      0.010904      0.002128
      7.87569     -2.60012      6.15509        -0.001985      0.005432      0.006240
     17.33605     -1.73707      4.27849         0.003773     -0.008814     -0.027954
      6.58374     -1.73707      4.27849         0.003605     -0.009622     -0.027720
      4.16857      1.73707      4.27849        -0.003773      0.008814     -0.027954
     14.92089      1.73707      4.27849        -0.003605      0.009622     -0.027720
     12.48938     -4.16857      4.27849         0.008814      0.003773     -0.027954
     12.48938      6.58374      4.27849         0.009622      0.003605     -0.027720
      9.01524      4.16857      4.27849        -0.008814     -0.003773     -0.027954
      9.01524     -6.58374      4.27849        -0.009622     -0.003605     -0.027720
     13.64129     -0.12194      6.86227        -0.173299      0.010036      0.003920
      2.88898     -0.12194      6.86227        -0.225338      0.030044     -0.004100
      7.86333      0.12194      6.86227         0.173299     -0.010036      0.003920
     18.61564      0.12194      6.86227         0.225338     -0.030044     -0.004100
     10.87425     -7.86333      6.86227        -0.010036     -0.173299      0.003920
     10.87425      2.88898      6.86227        -0.030044     -0.225338     -0.004100
     10.63037      7.86333      6.86227         0.010036      0.173299      0.003920
     10.63037     -2.88898      6.86227         0.030044      0.225338     -0.004100
     14.54082     -1.01785      6.04887         0.019038     -0.061454     -0.021008
      3.78851     -1.01785      6.04887         0.020951     -0.053983     -0.014491
      6.96380      1.01785      6.04887        -0.019038      0.061454     -0.021008
     17.71612      1.01785      6.04887        -0.020951      0.053983     -0.014491
     11.77016     -6.96380      6.04887         0.061454      0.019038     -0.021008
     11.77016      3.78851      6.04887         0.053983      0.020951     -0.014491
      9.73446      6.96380      6.04887        -0.061454     -0.019038     -0.021008
      9.73446     -3.78851      6.04887        -0.053983     -0.020951     -0.014491
     15.81389     -0.66542      5.47057        -0.003988     -0.074413     -0.031870
      5.06158     -0.66542      5.47057        -0.005715     -0.073766     -0.035829
      5.69073      0.66542      5.47057         0.003988      0.074413     -0.031870
     16.44305      0.66542      5.47057         0.005715      0.073766     -0.035829
     11.41773     -5.69073      5.47057         0.074413     -0.003988     -0.031870
     11.41773      5.06158      5.47057         0.073766     -0.005715     -0.035829
     10.08689      5.69073      5.47057        -0.074413      0.003988     -0.031870
     10.08689     -5.06158      5.47057        -0.073766      0.005715     -0.035829
     14.23543     -2.34346      5.82496         0.023083      0.008364      0.001883
      3.48312     -2.34346      5.82496         0.016876      0.005928      0.003004
      7.26919      2.34346      5.82496        -0.023083     -0.008364      0.001883
     18.02151      2.34346      5.82496        -0.016876     -0.005928      0.003004
     13.09577     -7.26919      5.82496        -0.008364      0.023083      0.001883
     13.09577      3.48312      5.82496        -0.005928      0.016876      0.003004
      8.40885      7.26919      5.82496         0.008364     -0.023083      0.001883
      8.40885     -3.48312      5.82496         0.005928     -0.016876      0.003004
     16.39800     -1.73761      4.82462        -0.038695      0.060664     -0.017474
      5.64569     -1.73761      4.82462        -0.040197      0.061389     -0.016982
      5.10662      1.73761      4.82462         0.038695     -0.060664     -0.017474
     15.85894      1.73761      4.82462         0.040197     -0.061389     -0.016982
     12.48992     -5.10662      4.82462        -0.060664     -0.038695     -0.017474
     12.48992      5.64569      4.82462        -0.061389     -0.040197     -0.016982
      9.01470      5.10662      4.82462         0.060664      0.038695     -0.017474
      9.01470     -5.64569      4.82462         0.061389      0.040197     -0.016982
     15.43525     -3.14592      4.91857        -0.007479      0.078821     -0.014637
      4.68294     -3.14592      4.91857        -0.004981      0.075663     -0.018268
      6.06938      3.14592      4.91857         0.007479     -0.078821     -0.014637
     16.82169      3.14592      4.91857         0.004981     -0.075663     -0.018268
     13.89823     -6.06938      4.91857        -0.078821     -0.007479     -0.014637
     13.89823      4.68294      4.91857        -0.075663     -0.004981     -0.018268
      7.60639      6.06938      4.91857         0.078821      0.007479     -0.014637
      7.60639     -4.68294      4.91857         0.075663      0.004981     -0.018268
      1.75212      0.35590      6.15062         1.114905      0.089663     -0.252958
     12.50443      0.35590      6.15062         0.933524      0.304013     -0.073314
     19.75251     -0.35590      6.15062        -1.114905     -0.089663     -0.252958
      9.00020     -0.35590      6.15062        -0.933524     -0.304013     -0.073314
     10.39641      1.75212      6.15062        -0.089663      1.114905     -0.252958
     10.39641     -9.00020      6.15062        -0.304013      0.933524     -0.073314
     11.10821     -1.75212      6.15062         0.089663     -1.114905     -0.252958
     11.10821      9.00020      6.15062         0.304013     -0.933524     -0.073314
 -----------------------------------------------------------------------------------
    total drift:                                0.000000     -0.000000      0.082533


--------------------------------------------------------------------------------------------------------



  FREE ENERGIE OF THE ION-ELECTRON SYSTEM (eV)
  ---------------------------------------------------
  free  energy   TOTEN  =      -572.40122915 eV

  energy  without entropy=     -572.43113207  energy(sigma->0) =     -572.41119679
 


--------------------------------------------------------------------------------------------------------


    POTLOK:  cpu time      0.0916: real time      0.0920


--------------------------------------------------------------------------------------------------------


     LOOP+:  cpu time    616.4973: real time    616.9285
    4ORBIT:  cpu time      0.0000: real time      0.0000



 total charge

# of ion       s       p       d       tot
------------------------------------------
    1        0.377   6.457   4.072  10.906
    2        0.377   6.457   4.072  10.906
    3        0.649   0.043   0.000   0.692
    4        0.649   0.043   0.000   0.692
    5        0.649   0.043   0.000   0.692
    6        0.649   0.043   0.000   0.692
    7        0.649   0.043   0.000   0.692
    8        0.649   0.043   0.000   0.692
    9        0.649   0.043   0.000   0.692
   10        0.649   0.043   0.000   0.692
   11        0.649   0.042   0.000   0.691
   12        0.648   0.042   0.000   0.691
   13        0.649   0.042   0.000   0.691
   14        0.648   0.042   0.000   0.691
   15        0.649   0.042   0.000   0.691
   16        0.648   0.042   0.000   0.691
   17        0.649   0.042   0.000   0.691
   18        0.648   0.042   0.000   0.691
   19        0.635   0.050   0.000   0.686
   20        0.635   0.050   0.000   0.686
   21        0.635   0.050   0.000   0.686
   22        0.635   0.050   0.000   0.686
   23        0.635   0.050   0.000   0.686
   24        0.635   0.050   0.000   0.686
   25        0.635   0.050   0.000   0.686
   26        0.635   0.050   0.000   0.686
   27        0.634   0.049   0.000   0.683
   28        0.634   0.049   0.000   0.683
   29        0.634   0.049   0.000   0.683
   30        0.634   0.049   0.000   0.683
   31        0.634   0.049   0.000   0.683
   32        0.634   0.049   0.000   0.683
   33        0.634   0.049   0.000   0.683
   34        0.634   0.049   0.000   0.683
   35        0.828   1.712   0.000   2.540
   36        0.828   1.711   0.000   2.540
   37        0.828   1.712   0.000   2.540
   38        0.828   1.711   0.000   2.540
   39        0.828   1.712   0.000   2.540
   40        0.828   1.711   0.000   2.540
   41        0.828   1.712   0.000   2.540
   42        0.828   1.711   0.000   2.540
   43        0.862   1.757   0.000   2.619
   44        0.862   1.756   0.000   2.619
   45        0.862   1.757   0.000   2.619
   46        0.862   1.756   0.000   2.619
   47        0.862   1.757   0.000   2.619
   48        0.862   1.756   0.000   2.619
   49        0.862   1.757   0.000   2.619
   50        0.862   1.756   0.000   2.619
   51        0.860   1.766   0.000   2.626
   52        0.860   1.766   0.000   2.626
   53        0.860   1.766   0.000   2.626
   54        0.860   1.766   0.000   2.626
   55        0.860   1.766   0.000   2.626
   56        0.860   1.766   0.000   2.626
   57        0.860   1.766   0.000   2.626
   58        0.860   1.766   0.000   2.626
   59        0.868   1.729   0.000   2.597
   60        0.868   1.729   0.000   2.597
   61        0.868   1.729   0.000   2.597
   62        0.868   1.729   0.000   2.597
   63        0.868   1.729   0.000   2.597
   64        0.868   1.729   0.000   2.597
   65        0.868   1.729   0.000   2.597
   66        0.868   1.729   0.000   2.597
   67        0.865   1.729   0.000   2.594
   68        0.865   1.729   0.000   2.594
   69        0.865   1.729   0.000   2.594
   70        0.865   1.729   0.000   2.594
   71        0.865   1.729   0.000   2.594
   72        0.865   1.729   0.000   2.594
   73        0.865   1.729   0.000   2.594
   74        0.865   1.729   0.000   2.594
   75        1.342   2.418   0.000   3.760
   76        1.342   2.418   0.000   3.760
   77        1.342   2.418   0.000   3.760
   78        1.342   2.418   0.000   3.760
   79        1.342   2.418   0.000   3.760
   80        1.342   2.418   0.000   3.760
   81        1.342   2.418   0.000   3.760
   82        1.342   2.418   0.000   3.760
   83        1.564   3.517   0.000   5.081
   84        1.564   3.515   0.000   5.079
   85        1.564   3.517   0.000   5.081
   86        1.564   3.515   0.000   5.079
   87        1.564   3.517   0.000   5.081
   88        1.564   3.515   0.000   5.079
   89        1.564   3.517   0.000   5.081
   90        1.564   3.515   0.000   5.079
--------------------------------------------------
tot         78.810 131.401   8.144 218.355



 magnetization (x)

# of ion       s       p       d       tot
------------------------------------------
    1        0.092   0.023   2.016   2.131
    2       -0.092  -0.023  -2.016  -2.131
    3        0.001  -0.000   0.000   0.001
    4       -0.001  -0.000   0.000  -0.001
    5        0.001  -0.000   0.000   0.001
    6       -0.001  -0.000   0.000  -0.001
    7       -0.001   0.000   0.000  -0.001
    8        0.001   0.000   0.000   0.001
    9       -0.001   0.000   0.000  -0.001
   10        0.001   0.000   0.000   0.001
   11       -0.001  -0.000   0.000  -0.001
   12        0.002   0.000   0.000   0.002
   13       -0.001  -0.000   0.000  -0.001
   14        0.002   0.000   0.000   0.002
   15        0.001   0.000   0.000   0.001
   16       -0.002  -0.000   0.000  -0.002
   17        0.001   0.000   0.000   0.001
   18       -0.002  -0.000   0.000  -0.002
   19       -0.000   0.000   0.000  -0.000
   20        0.000  -0.000   0.000   0.000
   21       -0.000   0.000   0.000  -0.000
   22        0.000  -0.000   0.000   0.000
   23        0.000  -0.000   0.000   0.000
   24       -0.000   0.000   0.000  -0.000
   25        0.000  -0.000   0.000   0.000
   26       -0.000   0.000   0.000  -0.000
   27       -0.000   0.000   0.000   0.000
   28       -0.000  -0.000   0.000  -0.000
   29       -0.000   0.000   0.000   0.000
   30       -0.000  -0.000   0.000  -0.000
   31        0.000  -0.000   0.000  -0.000
   32        0.000   0.000   0.000   0.000
   33        0.000  -0.000   0.000  -0.000
   34        0.000   0.000   0.000   0.000
   35       -0.001   0.000   0.000  -0.000
   36        0.001  -0.002   0.000  -0.001
   37       -0.001   0.000   0.000  -0.000
   38        0.001  -0.002   0.000  -0.001
   39        0.001  -0.000   0.000   0.000
   40       -0.001   0.002   0.000   0.001
   41        0.001  -0.000   0.000   0.000
   42       -0.001   0.002   0.000   0.001
   43        0.000   0.003   0.000   0.004
   44       -0.000  -0.004   0.000  -0.004
   45        0.000   0.003   0.000   0.004
   46       -0.000  -0.004   0.000  -0.004
   47       -0.000  -0.003   0.000  -0.004
   48        0.000   0.004   0.000   0.004
   49       -0.000  -0.003   0.000  -0.004
   50        0.000   0.004   0.000   0.004
   51        0.000   0.000   0.000   0.000
   52       -0.000   0.000   0.000   0.000
   53        0.000   0.000   0.000   0.000
   54       -0.000   0.000   0.000   0.000
   55       -0.000  -0.000   0.000  -0.000
   56        0.000  -0.000   0.000  -0.000
   57       -0.000  -0.000   0.000  -0.000
   58        0.000  -0.000   0.000  -0.000
   59        0.000   0.002   0.000   0.002
   60       -0.000  -0.002   0.000  -0.002
   61        0.000   0.002   0.000   0.002
   62       -0.000  -0.002   0.000  -0.002
   63       -0.000  -0.002   0.000  -0.002
   64        0.000   0.002   0.000   0.002
   65       -0.000  -0.002   0.000  -0.002
   66        0.000   0.002   0.000   0.002
   67        0.000   0.001   0.000   0.001
   68       -0.000  -0.001   0.000  -0.001
   69        0.000   0.001   0.000   0.001
   70       -0.000  -0.001   0.000  -0.001
   71       -0.000  -0.001   0.000  -0.001
   72        0.000   0.001   0.000   0.001
   73       -0.000  -0.001   0.000  -0.001
   74        0.000   0.001   0.000   0.001
   75        0.000   0.001   0.000   0.001
   76       -0.000  -0.001   0.000  -0.001
   77        0.000   0.001   0.000   0.001
   78       -0.000  -0.001   0.000  -0.001
   79       -0.000  -0.001   0.000  -0.001
   80        0.000   0.001   0.000   0.001
   81       -0.000  -0.001   0.000  -0.001
   82        0.000   0.001   0.000   0.001
   83       -0.002  -0.037   0.000  -0.039
   84        0.002   0.054   0.000   0.056
   85       -0.002  -0.037   0.000  -0.039
   86        0.002   0.054   0.000   0.056
   87        0.002   0.037   0.000   0.039
   88       -0.002  -0.054   0.000  -0.056
   89        0.002   0.037   0.000   0.039
   90       -0.002  -0.054   0.000  -0.056
--------------------------------------------------
tot          0.000   0.000   0.000   0.000
 

 total amount of memory used by VASP MPI-rank0   487640. kBytes
=======================================================================

   base      :      30000. kBytes
   nonlr-proj:       2990. kBytes
   fftplans  :       5853. kBytes
   grid      :      15805. kBytes
   one-center:        186. kBytes
   wavefun   :     432806. kBytes
 
  
  
 General timing and accounting informations for this job:
 ========================================================
  
                  Total CPU time used (sec):      714.477
                            User time (sec):      706.872
                          System time (sec):        7.604
                         Elapsed time (sec):      716.316
  
                   Maximum memory used (kb):      790000.
                   Average memory used (kb):          N/A
  
                          Minor page faults:        96555
                          Major page faults:            0
                 Voluntary context switches:        14348
